Cpptraj Generated Restart                                                       
55879  6.0120000E+04
  60.9615631  -5.3016491 -42.4538536  60.6980591  -4.5286741 -42.9882240
  61.2091522  -4.7650814 -44.2680397  62.1839752  -5.1513658 -44.1944008
  61.3965683  -3.7811520 -44.7385483  60.3813133  -5.8076749 -45.1428757
  60.8942566  -5.8393946 -46.0868530  60.3407135  -7.0151486 -44.3905220
  59.0498390  -7.5277286 -44.5219574  58.9554710  -7.9566898 -45.5169334
  58.8597679  -8.5436649 -43.4213104  59.1593552  -8.1829176 -42.1352730
  59.4638863  -7.1846471 -41.8470001  59.0011406  -9.0631838 -41.1113663
  59.0355377  -8.7296658 -39.6706657  59.1651077  -7.6737900 -39.3789406
  58.2044067  -9.0999908 -39.1302910  59.8840027  -9.1977110 -39.2469902
  58.5814323 -10.4490309 -41.3854294  58.2998466 -11.3143730 -40.5602798
  58.4205475 -10.7754145 -42.7181053  58.1590767 -11.7238560 -42.9120598
  58.5940781  -9.8823385 -43.7606621  58.6127777 -10.3331032 -44.9083138
  58.9066086  -5.4370475 -45.4179420  58.7310295  -4.4314690 -45.0908813
  58.0863762  -6.3789449 -44.5011978  57.8671608  -5.9462304 -43.5022697
  57.1658516  -6.7389297 -45.0019798  58.6079216  -5.6001358 -46.8031502
  57.1471100  -5.2328072 -47.4698715  57.2720985  -4.9290252 -48.9274330
  56.4972038  -4.2702389 -46.5294495  56.2163467  -6.5496993 -47.3419418
  56.5393944  -7.7166743 -48.0874557  57.6786346  -7.7884541 -48.0887489
  56.2853813  -7.5321627 -49.1591454  56.0167313  -9.0924864 -47.8240356
  56.5054970  -9.7723217 -48.5173721  56.1976776  -9.5649481 -46.5273476
  54.9819641  -9.9961071 -46.0296402  54.8933601 -10.9991627 -46.3862610
  54.9744644  -9.9810190 -44.5622826  55.0870590  -8.7946024 -43.8181267
  55.1608543  -7.8467159 -44.2926445  55.1160851  -8.7957039 -42.4496193
  55.0999756  -7.4649549 -41.6763954  54.2158546  -7.5838399 -41.0642433
  56.0634842  -7.3118291 -41.0595512  55.0422478  -6.5297155 -42.2533073
  55.2549286 -10.0613098 -41.7217369  55.3189812 -10.1433611 -40.4891396
  55.3047256 -11.1839609 -42.5298843  55.1224899 -12.0378933 -42.0164528
  55.0978241 -11.2164135 -43.9001236  54.9561844 -12.3173761 -44.4661903
  54.4935341  -9.1050873 -48.1391220  54.1290359  -8.2379837 -48.7013855
  54.0260696  -9.0195780 -46.6876335  54.0131073  -8.0177774 -46.3937149
  52.9328728  -9.2751703 -46.6687431  54.1260414 -10.3181725 -48.8050270
  53.2348518 -10.3306656 -50.1085587  54.1050377 -10.8234062 -51.1998863
  52.5292816  -9.0099468 -50.2132797  52.1795616 -11.4507599 -49.7089043
  52.5604897 -12.8493662 -49.7504349  53.4957352 -12.9784288 -49.1691246
  52.8795700 -13.0819311 -50.7799110  51.4705391 -13.8095140 -49.2007408
  51.7445984 -14.7851171 -49.7861099  51.6596222 -14.0887194 -47.7469139
  50.5189972 -13.6873999 -47.0399323  49.9254265 -14.4877920 -46.7993546
  50.9416313 -12.7456551 -45.9472198  51.6070518 -11.5388088 -45.9835320
  51.9524117 -11.0913229 -46.8873405  51.8148422 -11.0674772 -44.8018570
  51.3553505 -12.0173111 -43.9218140  51.4845695 -12.1810045 -42.5487633
  52.0455589 -11.4633045 -41.7299194  50.9937057 -13.3613825 -42.0474396
  51.0415535 -13.5007238 -41.0338326  50.3889351 -14.3606510 -42.8043556
  49.8491020 -15.4011717 -42.2469025  49.9279823 -15.6010714 -41.2486076
  49.4760895 -16.0492134 -42.8632240  50.2906761 -14.2505131 -44.1028671
  50.7699051 -13.0589781 -44.6048241  49.9626312 -13.5800495 -49.3589745
  49.7693901 -12.9824219 -50.2008820  49.7280273 -12.8797379 -48.0730362
  50.1443329 -11.9113312 -48.1306992  48.6356888 -12.9745922 -47.8413124
  49.3825989 -14.8324814 -49.5678749  47.8287086 -15.1231403 -49.9271774
  47.7624245 -16.4756775 -50.4710655  47.2401123 -14.0077915 -50.7259750
  47.0775375 -15.1335964 -48.4877625  47.0163727 -16.2246933 -47.6521301
  48.0163994 -16.6231861 -47.3645439  46.5111542 -16.9755783 -48.2410812
  46.3149872 -15.9416342 -46.3190041  46.2190742 -16.8712807 -45.6964417
  47.0160789 -15.0014391 -45.4726219  46.0693932 -14.1531029 -44.7869949
  45.7651443 -14.7869730 -43.9213486  46.7655716 -12.8914700 -44.3719444
  47.1528587 -11.9511032 -45.3006592  46.9564629 -11.9842262 -46.4157715
  47.8685226 -10.8513603 -44.9270439  48.3539772 -10.2600183 -45.7713966
  48.1975861 -10.7770758 -43.5332642  49.1048431  -9.9185362 -43.1477356
  49.4317131 -10.0591326 -42.2183189  49.4213295  -9.1398964 -43.7441902
  47.8007011 -11.6135702 -42.6061172  47.1187477 -12.6756210 -42.9884720
  46.8319855 -13.5155869 -42.1354790  44.8849831 -15.3486862 -46.5820961
  44.7823105 -15.1508646 -47.6478233  44.9290924 -14.0066462 -45.8531723
  45.2760277 -13.2001848 -46.4850807  43.9885559 -13.6274481 -45.4415588
  43.9132462 -16.2219410 -46.0391846  42.3325882 -15.9768238 -46.1569824
  41.7104874 -17.3077297 -46.4875755  42.0855598 -14.7562494 -46.9826050
  42.1395912 -15.6079702 -44.6819954  42.2485161 -16.6274719 -43.6977692
  43.2159691 -17.1256351 -43.7060394  41.4637375 -17.3808231 -43.9048615
  42.0618553 -16.1521854 -42.2509880  42.2032547 -17.0809879 -41.6822891
  42.9080467 -15.0634680 -41.9228172  42.1736336 -13.9614820 -41.3642082
  42.0012894 -14.0523481 -40.3731842  42.8825340 -12.7169008 -41.7079964
  43.2621231 -12.2815151 -43.0025215  42.9192657 -12.8405390 -43.9132347
  44.0961456 -11.2554569 -42.9686546  44.3724937 -11.0818729 -41.5878716
  45.1701736 -10.2072840 -40.7856140  45.9901428  -9.2826710 -41.2549133
  46.3702087  -8.7771778 -40.4762077  46.0462265  -9.1555548 -42.2579651
  45.2437515 -10.3263578 -39.4520988  44.5111351 -11.2052536 -38.8575287
  44.5720940 -11.3774109 -37.7467690  43.6499672 -12.0337553 -39.4729156
  43.5401764 -11.9195881 -40.8529549  40.6664467 -15.6477585 -42.0023460
  39.9401398 -15.9578562 -42.7268333  40.8355865 -14.1662092 -42.0859718
  40.8973923 -13.9570417 -43.1366386  40.0265999 -13.6857395 -41.5635376
  40.1777611 -15.9003181 -40.7287292  38.7649231 -15.4464378 -40.1937447
  38.2400932 -16.5192661 -39.3891220  37.9225426 -14.8599272 -41.2975044
  39.2992668 -14.2730265 -39.2019348  39.8143616 -14.5510988 -37.9336700
  40.6671982 -15.1351032 -37.9634666  39.0210457 -15.1069221 -37.4729271
  40.0677223 -13.3828621 -37.0052490  40.5014267 -13.7224312 -36.0294609
  41.0206947 -12.3739347 -37.5074730  40.5080490 -11.0212965 -37.3865242
  40.7815208 -10.6024141 -36.4264259  41.0781021 -10.1181087 -38.4220428
  40.8663483 -10.3425417 -39.8088913  40.1903801 -11.0757494 -40.2190704
  41.5612793  -9.4661293 -40.6041641  42.2022972  -8.6703587 -39.6003838
  43.1304054  -7.6635356 -39.6331673  43.5447044  -7.0870967 -40.7557983
  44.1709480  -6.2737069 -40.7232056  43.5443878  -7.6237092 -41.5447197
  43.5725937  -7.0548687 -38.5228653  43.2283401  -7.6018782 -37.3174591
  43.5989723  -7.0299301 -36.3974342  42.4280739  -8.6287642 -37.1128845
  41.9662476  -9.0864830 -38.2765884  38.7520638 -12.5294485 -36.5529099
  37.8499031 -13.0104170 -36.8298149  38.9797935 -11.1899185 -37.3434258
  38.6587181 -11.3560257 -38.4206085  38.4894485 -10.3472500 -36.8072319
  38.8567848 -12.5201664 -35.1934242  37.7967720 -11.8928089 -34.1359291
  37.9727936 -12.5436115 -32.8395348  36.4088402 -12.1135092 -34.7127380
  38.1894150 -10.3812990 -34.0487099  39.5037231 -10.0296288 -33.5451469
  40.1900024 -10.6398468 -34.0978470  39.5130615 -10.3948040 -32.5878639
  39.7685280  -8.5399666 -33.6742897  40.6222343  -8.3079491 -32.9679108
  40.0898209  -8.1329947 -34.9741669  39.6364365  -6.8013525 -35.1406593
  40.2821350  -6.1089220 -34.6504631  39.6469765  -6.5780702 -36.6404152
  38.9291840  -7.4032135 -37.4731903  38.3520660  -8.2511864 -37.0820351
  39.1287193  -7.2121129 -38.8145599  38.4567986  -8.2669926 -39.7246590
  37.5311470  -7.9729710 -40.2086906  39.2105522  -8.5534697 -40.4252090
  38.3259926  -9.1899500 -39.1301231  39.9197235  -6.0781584 -39.3041115
  40.2159576  -5.9180713 -40.5080643  40.4925880  -5.3101869 -38.3675423
  41.0885048  -4.5691075 -38.6539764  40.3557281  -5.4651585 -37.0859909
  40.9520111  -4.6938367 -36.3114395  38.5913048  -7.6140237 -33.2435417
  37.7533112  -8.2567301 -33.0267868  38.2358665  -6.6872301 -34.4211807
  37.4040489  -7.2026019 -34.9625435  38.0664787  -5.7180762 -34.1022110
  38.8522034  -6.9500589 -32.0417480  37.8015709  -6.4411397 -31.0568428
  38.4588623  -6.1844163 -29.7836514  36.5943184  -7.2919674 -31.0108967
  37.2825165  -5.0864573 -31.6252155  38.0819016  -3.9362516 -31.5198822
  39.0982285  -4.2106304 -31.8778610  38.1773605  -3.7071536 -30.4973736
  37.6688957  -2.7903800 -32.4105377  38.0446968  -1.9156973 -31.9001350
  38.2478065  -2.8624585 -33.7329674  37.2182045  -2.3464398 -34.5505371
  37.0987434  -1.2985003 -34.6111183  37.4456482  -2.7658935 -35.9382782
  36.9422760  -3.8547277 -36.5657196  36.2675285  -4.5673828 -36.0350037
  37.4985695  -4.1063519 -37.7567520  38.2066307  -2.8560190 -38.0182457
  38.9742889  -2.4038033 -39.1541672  39.2172508  -2.9186640 -40.2040825
  39.5138550  -1.1563828 -38.9099464  40.2349739  -0.7890424 -39.5460625
  39.2869606  -0.4325560 -37.7728233  39.9023781   0.7037328 -37.6700821
  40.3992310   1.1387436 -38.4017029  39.9524422   1.0684133 -36.7080688
  38.6553650  -0.8338932 -36.7080956  38.1735649  -2.0860078 -36.8793182
  36.1410637  -2.5139840 -32.4460831  35.5021439  -3.1459870 -31.8357372
  35.8982811  -2.8642879 -33.9198914  35.8489075  -3.9562476 -34.0007248
  35.0856590  -2.2704093 -34.3701668  35.9117775  -1.1020020 -32.2979774
  35.4065170  -0.4440458 -30.8910561  36.3542557  -0.8460458 -29.7641582
  34.0204926  -0.7740955 -30.7211227  35.5016174   1.1626306 -30.9740353
  36.7522049   1.7498014 -31.0926647  37.5470543   1.0774258 -31.1018257
  36.8299408   2.5245819 -30.3781643  37.0126801   2.4977288 -32.3699417
  38.0661163   2.8165176 -32.3921623  36.8332329   1.5925845 -33.4052238
  36.4114952   2.3495588 -34.5360985  37.1899490   2.9934714 -35.0071793
  35.7774277   1.4046297 -35.4590836  34.6681938   0.7051393 -35.0108795
  34.3427505   0.8178271 -33.9717827  34.1421089  -0.2983123 -35.8269310
  33.3489113  -0.9593037 -35.4401779  34.7280273  -0.4468575 -37.1012650
  34.5374413  -1.4818375 -37.8140602  34.9656372  -1.4973133 -38.7002831
  33.8039818  -2.0914154 -37.5750809  35.7338867   0.2348910 -37.5578079
  36.2700615   1.2756326 -36.8016129  37.0895309   2.0373359 -37.3141289
  36.1007614   3.7304752 -32.6536980  35.4582672   3.8399017 -31.8126602
  35.4241028   3.2917063 -33.9059830  34.4889755   2.8338785 -33.5941086
  35.0581512   4.1059408 -34.5662193  36.9349976   4.7933517 -32.9949646
  36.6656685   6.2695212 -32.5610085  37.9586754   6.7629595 -32.0040054
  35.4129829   6.3453193 -31.7802048  36.3151741   7.0042629 -33.9188271
  37.2191162   7.0428433 -35.0618706  37.8545494   6.2161446 -35.0455475
  37.8043709   7.9941058 -35.0135307  36.4397202   7.0151367 -36.4048347
  37.1298218   7.2447047 -37.1358223  36.0047646   5.7434773 -36.7420883
  35.0034981   5.9755406 -37.7149010  35.3963661   6.0139875 -38.7078209
  34.1444321   4.7091875 -37.7357635  33.4011002   4.1213856 -36.7365608
  33.3322983   4.6895733 -35.8014259  32.9206734   2.9435599 -36.9332809
  33.2879219   2.7551115 -38.3004379  33.1703606   1.8008727 -39.3382339
  32.6008797   0.6369175 -39.0794449  32.6582947   0.0209950 -39.8381386
  31.9741516   0.5047870 -38.2974434  33.7058411   1.8323463 -40.5913277
  34.4148788   2.9438634 -40.8024406  34.8050690   3.0882428 -41.7641296
  34.5747948   4.0264921 -40.0398865  33.9796486   3.8236217 -38.7631493
  35.2386246   8.0129776 -36.5541649  34.9064331   8.0744238 -35.5512657
  34.2051315   7.2327170 -37.3427238  33.4562378   6.9866648 -36.6691856
  33.8637238   7.8840423 -38.1921577  35.6146240   9.2510424 -37.1393547
  34.5085411  10.4928179 -37.2558670  35.3113251  11.7579699 -37.4238930
  33.5650520  10.4243774 -36.1396332  33.7719917  10.2896652 -38.5769081
  34.3914566  10.6359053 -39.8874512  35.2783356  10.0332460 -39.9700623
  34.6559334  11.6586657 -40.0197372  33.5135727  10.2215881 -41.0932655
  34.0750923  10.3619337 -42.0374870  33.2367477   8.8206148 -40.9488907
  31.7936420   8.6374416 -41.0418663  31.5847607   8.5975761 -42.0867996
  31.2915230   7.4497247 -40.3823280  30.5993958   7.3300743 -39.1759758
  30.4183578   8.1908655 -38.5288315  30.2844868   6.1055150 -38.8152809
  30.5668545   5.3878999 -40.0113831  30.3898029   4.0707455 -40.4813499
  29.8158836   3.1259222 -39.7606888  29.9226112   2.2209780 -40.1880188
  29.2545395   3.3154261 -38.9160500  30.7753601   3.7642236 -41.7055206
  31.4060116   4.6681967 -42.4460831  31.8647060   4.4117117 -43.3647957
  31.6920929   5.9297247 -42.1194420  31.2636662   6.2402072 -40.8927803
  32.1547165  10.8823643 -41.2252197  32.1929436  11.9092321 -40.8271980
  31.2800484   9.8987761 -40.5213356  31.3165817   9.9958143 -39.4010086
  30.2321243  10.1589775 -40.6950035  31.7426128  10.9905663 -42.5970993
  30.8517742  12.1492500 -43.2007027  31.8109608  13.2260418 -43.4736557
  29.6785793  12.5100889 -42.3537254  30.3444672  11.4457579 -44.5413208
  31.2626686  11.1312351 -45.5849037  32.2330437  10.9407120 -45.2080879
  31.2752666  11.9945765 -46.2385139  30.7642422   9.8786879 -46.3794479
  31.3804073   9.7235842 -47.2326393  30.7465897   8.7920198 -45.5382690
  29.4566174   8.2162580 -45.4629097  29.3440189   7.3223629 -46.0850868
  29.0750256   7.7594366 -44.1139755  29.2577705   8.4810295 -42.9393196
  29.7055874   9.4701042 -42.8524094  28.6192913   7.9712200 -41.9303207
  28.1343727   6.6714921 -42.4378738  27.5539589   5.4749374 -41.8440857
  27.1759586   5.2511816 -40.7088013  27.1663151   4.5872998 -42.7756195
  26.6674881   3.7457776 -42.3630447  27.2485828   4.7157688 -44.1295929
  26.8501778   3.6854358 -44.8489380  26.2987843   2.9721379 -44.4458084
  26.9862595   3.6809978 -45.8295555  27.9153366   5.6998448 -44.7046394
  28.3143425   6.6357398 -43.8036270  29.3330269   9.9484253 -46.9716339
  29.0538445  11.0367317 -46.9330482  28.4840355   9.2617216 -45.9240570
  28.2433701  10.0456667 -45.2025299  27.5973053   8.8585339 -46.3622971
  29.2595253   9.4148064 -48.3231697  27.9236870   9.6029482 -49.1851883
  28.2471523   9.3502750 -50.5775375  27.2591267  10.8909683 -48.8959465
  27.0377274   8.3516035 -48.6849594  27.1384888   7.0836039 -49.2543602
  28.0955677   6.5332389 -48.9641266  27.0597477   7.1584697 -50.3362312
  25.8958664   6.3071914 -48.8172722  25.9229507   5.3313322 -49.2552223
  25.8517113   6.2544289 -47.3912926  24.5302067   6.5360126 -46.9181557
  23.8579292   5.6952896 -47.0922279  24.6263657   6.9370236 -45.4956665
  25.1441994   8.1407261 -45.1158371  25.3681488   8.8329058 -45.9007301
  25.3378162   8.4219980 -43.8323097  25.7687359   9.8193178 -43.4685402
  25.1173325  10.0706129 -42.5873146  26.7728806   9.8253889 -43.0343437
  25.6349754  10.5229750 -44.3137093  25.0062199   7.4767637 -42.7814064
  25.1338444   7.6573925 -41.5840759  24.4503613   6.3094716 -43.2834282
  24.1205959   5.6271563 -42.6365051  24.2453766   5.9920130 -44.5701180
  23.7004433   4.9259434 -44.8326111  24.5186234   6.9025807 -49.1619415
  24.5324059   7.6801391 -49.8762054  24.0765724   7.6235104 -47.8989410
  24.7709465   8.4619255 -47.8113861  22.9775753   7.8002968 -47.8021393
  23.4737720   5.9589977 -49.3992233  22.7164993   5.8637352 -50.8645401
  23.6382561   5.1664524 -51.7753181  22.0566730   7.1784234 -51.1580353
  21.5952892   4.7899351 -50.4859123  21.8542404   3.4349065 -50.3763237
  22.6176357   3.1821885 -49.6119995  22.0659771   3.0251968 -51.3643913
  20.6517200   2.6505761 -49.7630386  20.8696632   1.5873628 -49.9748116
  20.6618938   2.8561833 -48.3826828  19.5184307   3.6097672 -47.9519501
  18.8255081   2.8969133 -47.5004654  19.9375114   4.7239218 -47.0694160
  20.5474319   5.8770089 -47.3638649  20.7687702   6.2055826 -48.3923874
  20.8755817   6.6026053 -46.2944489  20.3920822   5.8432441 -45.2386932
  20.3634567   6.0237393 -43.8292770  20.7960434   7.0761695 -43.1577492
  20.6128979   7.0571270 -42.1354332  21.3953590   7.8263378 -43.6947937
  19.7764320   5.0816932 -43.0293579  19.2681408   4.0301142 -43.6504440
  18.8357887   3.2964113 -43.0165672  19.1908741   3.7126076 -44.9772758
  19.7806225   4.7118468 -45.6798286  19.2237473   3.0158689 -50.2896652
  19.2623158   3.3860328 -51.3654633  18.7917156   4.1094437 -49.2263641
  19.0629730   5.0876007 -49.5605354  17.6888866   4.1437030 -49.0814247
  18.3652210   1.8651631 -50.3137360  16.7965584   1.9905944 -50.5215645
  16.2487545   0.6942074 -51.0534630  16.4491844   3.2701039 -51.2205734
  16.3659534   2.0600095 -48.9775162  16.5618935   1.0328798 -48.1084061
  17.6173954   0.7878981 -47.8962746  16.1105976   0.0651931 -48.5196190
  15.8993673   1.3461447 -46.7372284  15.9909706   0.4933609 -46.0883408
  16.4902611   2.3958881 -46.0163803  15.5551004   3.1746294 -45.3916016
  15.3184643   2.6964214 -44.4114761  16.1386318   4.5260687 -45.1695938
  16.5061665   5.3783135 -46.1566353  16.5514011   5.0696726 -47.2083778
  16.9512329   6.5233278 -45.6874161  16.7975101   6.3725204 -44.2731400
  17.1531067   7.1322861 -43.1841049  17.7579479   8.2885151 -43.2043610
  17.9487228   8.6976995 -42.3070221  17.9667492   8.7161140 -44.0514641
  16.9523716   6.7147374 -41.9663620  16.4291763   5.5357456 -41.7687531
  16.3027897   5.2626209 -40.6686630  16.0870152   4.6213670 -42.6609764
  16.3130703   5.1354156 -43.9156342  14.3498716   1.7231388 -46.8686447
  13.9721756   1.6372046 -47.8784676  14.3707552   3.1204381 -46.3949203
  14.4378729   3.8416615 -47.2008324  13.5196209   3.4570620 -45.9204750
  13.5938730   0.8899297 -46.0571213  11.9902153   1.0097561 -45.8587837
  11.4626093  -0.3301244 -45.5398712  11.3887768   1.6925591 -46.9803391
  11.8252821   1.9192389 -44.5751991  12.5952244   1.6835653 -43.3797073
  13.6359186   1.7498478 -43.6587143  12.3779955   0.6473318 -43.0139694
  12.3834753   2.6381147 -42.2184944  12.7593460   2.2449739 -41.2731743
  13.1475611   3.8062353 -42.4654999  12.3628540   4.8295517 -41.9939117
  12.4132156   4.8736339 -40.8820610  12.9443607   6.0510168 -42.5460625
  12.9134769   6.2292304 -43.8689690  12.6034164   5.4035544 -44.5520897
  13.3215313   7.4067316 -44.4025688  13.1620741   7.6791410 -45.8887444
  12.7399902   6.8427076 -46.3895874  12.5327644   8.6047535 -46.0737572
  14.1719637   7.9181061 -46.1911163  14.0424452   8.4072390 -43.5408134
  14.6212587   9.4380951 -43.8903694  14.0620003   8.1035137 -42.1901169
  14.5081282   8.8035688 -41.5704041  13.5074997   6.9769258 -41.6642532
  13.4920750   6.7836275 -40.4880676  10.9139347   3.1100910 -41.9037094
  10.1804495   2.5895076 -42.5565720  10.9499245   4.4635644 -42.4360924
  10.8364840   4.3311758 -43.4907837  10.0841026   5.1359849 -42.1248245
  10.6569519   3.0351865 -40.4597588   9.2812691   3.4583592 -39.8787231
   8.8241129   2.4584172 -38.9051437   8.3159285   3.9976339 -40.8514290
   9.6946411   4.6560187 -38.9457474  10.5969028   4.4532595 -37.9605484
  11.5585260   4.3003550 -38.5340385  10.3491564   3.5789266 -37.3790054
  10.8024406   5.7967267 -37.0933723  11.4558554   5.5596313 -36.2482452
  11.5595112   6.8581843 -37.7601547  10.6036177   8.0059023 -37.8363075
  10.8789177   8.6412668 -37.0085754  10.7664261   8.8164597 -39.1305923
  10.2979784   8.3567629 -40.2953339   9.7712202   7.4025078 -40.3880920
  10.5622892   9.0280008 -41.4498062  10.1839371   8.4321003 -42.7922173
   9.5120449   9.1523561 -43.3096924  11.0502634   8.2269392 -43.4363441
   9.5907993   7.5737720 -42.6949043  11.3357058  10.2621851 -41.3442802
  11.7793083  10.9269390 -42.3035545  11.6911125  10.6942949 -40.1157684
  12.2525511  11.5340490 -40.0231171  11.4990845   9.9845695 -38.9921913
  11.8955336  10.4865894 -37.9117889   9.4458590   6.2747197 -36.5802383
   8.7614403   5.4185438 -36.7208977   9.2605371   7.4043427 -37.5966988
   8.9251480   6.9595075 -38.5919800   8.5850468   8.2163973 -37.2374535
   9.5289822   6.7625980 -35.2594376   8.2754087   7.0296063 -34.3481789
   8.7688169   7.0536380 -32.9639397   7.1904049   6.1405029 -34.7248535
   7.9244452   8.5403624 -34.7303658   8.7034807   9.6586266 -34.3289642
   9.6035471   9.4522743 -34.8577232   8.6744270   9.6513395 -33.2696762
   8.2227297  11.0749063 -34.7961960   8.7610922  11.7199478 -34.0663338
   8.5860500  11.4386129 -36.0754623   7.4674568  11.6973772 -36.8321228
   7.2761273  12.7659731 -36.7306862   7.6613584  11.5557842 -38.2565079
   7.0642595  10.7526922 -39.2165222   6.3979363   9.9323139 -38.8963585
   7.4615202  10.9833879 -40.3964348   8.3177719  12.0572605 -40.2991333
   9.0908184  12.8612423 -41.1158714   9.1677561  12.7660923 -42.4589310
   9.7438154  13.4718847 -42.9178391   8.4162817  12.1992130 -42.8473511
   9.9181585  13.7612581 -40.6162758   9.9757757  13.9607201 -39.3401642
  10.6405563  14.7311087 -38.9937515   9.2835140  13.3208389 -38.4155121
   8.5047693  12.3266058 -38.9723816   6.7247162  11.1577301 -34.6675987
   6.2693892  10.3574772 -34.0722694   6.3223138  10.9486017 -36.1656380
   6.4272604   9.8978395 -36.4790611   5.2919984  11.2722025 -36.3163834
   6.2575669  12.4573870 -34.2671852   5.4862418  12.6962643 -32.8863754
   6.0502167  11.8818903 -31.7779350   4.0645289  12.5169687 -33.2416267
   5.7681394  14.2410650 -32.6360168   7.0839558  14.6160688 -32.2169418
   7.8108826  13.8008223 -32.3537178   7.1058083  14.8626785 -31.1165180
   7.5617542  15.7578630 -33.1091766   8.4912510  16.1115952 -32.6753998
   7.7008071  15.3539886 -34.3701782   6.8250337  16.2184258 -35.1046257
   7.2576118  17.1209316 -35.4623947   6.3607349  15.4833851 -36.3047943
   5.4092579  14.5447979 -36.4064789   4.9866314  14.0618553 -35.5243530
   5.1964941  14.1032915 -37.6066818   6.0381007  14.9411650 -38.3725166
   6.3515334  15.1214571 -39.7035980   5.7993574  14.4312754 -40.7375183
   5.9827671  14.8782997 -41.5854568   5.1076899  13.7077618 -40.6068954
   7.1920395  16.0520191 -40.1715736   7.7246037  16.8538742 -39.2993202
   8.3325920  17.6783905 -39.6715431   7.6498718  16.7830486 -37.9507141
   6.6937318  15.8313923 -37.5864792   6.6644926  16.9435310 -33.0565262
   6.0817084  16.8690128 -32.0862350   5.7698731  16.7581596 -34.2183571
   4.8537464  16.1172771 -34.1505547   5.4608502  17.7219830 -34.6594315
   7.4141793  18.1419010 -33.2404060   6.8707561  19.5440178 -32.7593613
   8.0761223  20.1956215 -32.1366043   5.6786075  19.2707348 -31.9365559
   6.5137572  20.4029293 -34.1197243   7.5757318  20.7919407 -34.9199028
   8.2590580  19.9052715 -35.0433617   8.2431250  21.4306660 -34.2866898
   7.2695351  21.4587383 -36.2785301   8.0816936  21.9714622 -36.7494202
   6.7916780  20.4253902 -37.1373100   5.5754352  20.7893524 -37.6927681
   5.7466369  21.3338947 -38.6414413   4.8032598  19.5144806 -37.9994278
   4.1538377  18.6713467 -37.0773277   4.1905322  18.9036274 -36.0133820
   3.6302934  17.5945263 -37.6171303   3.7869310  17.8069420 -38.9818878
   3.5967157  16.9885159 -40.1421509   3.2624974  15.7201166 -40.1565781
   3.2915947  15.2377901 -41.0337791   2.9069421  15.3817692 -39.2983208
   3.9669363  17.4242802 -41.3361969   4.5575171  18.6260147 -41.4768219
   4.7378435  18.9800205 -42.4940224   4.8529611  19.4341583 -40.4823875
   4.5149283  18.9223671 -39.2345924   6.1604476  22.5253372 -36.1899796
   6.0569320  22.7609463 -35.1293335   4.9838114  21.6904163 -36.7133064
   4.5626416  21.1679630 -35.8267708   4.2082801  22.3708210 -37.2139091
   6.6054106  23.6204567 -37.0014496   5.8018618  25.0355644 -36.9434967
   6.7114830  26.0709991 -37.4881325   5.1383762  25.2129498 -35.6855850
   4.7602854  24.7230778 -38.0277290   5.1667576  24.4922962 -39.4053116
   6.0151434  23.8328400 -39.4463196   5.4581771  25.4780331 -39.8170013
   4.1358056  23.9043083 -40.3678780   4.5424943  24.0920258 -41.2576866
   3.7426012  22.5404339 -40.2418404   2.4708991  22.4634628 -40.7680359
   2.6375837  22.5821552 -41.8165779   1.8142769  21.1422386 -40.5638199
   1.3881265  20.5405807 -39.4045906   1.5531836  20.9876938 -38.4421043
   0.8947839  19.3495350 -39.5550499   1.0072442  19.1027832 -40.9199524
   0.6314932  17.9451046 -41.7176628  -0.0196059  16.9523640 -41.3444405
   0.9277180  18.0957813 -43.0648918   0.7050220  17.4026833 -43.7551727
   1.3462458  19.2453175 -43.6087265   1.4248796  19.2827282 -44.9073601
   1.3389512  18.4308853 -45.4390945   1.4970489  20.1471024 -45.3275604
   1.5749792  20.3781624 -42.9807014   1.4510852  20.2633152 -41.5565262
   2.9159081  24.7282753 -40.3683395   2.8841367  25.4436131 -39.5352364
   1.8045636  23.6340866 -40.1015625   1.8335714  23.5003471 -39.0357895
   0.7480674  23.9706955 -40.4207153   2.7310772  25.3203926 -41.6678772
   3.5593491  25.7213783 -41.9546547 -32.4057617 -29.3473301  23.8681240
 -32.0513153 -29.5718174  22.9663658 -32.2874641 -28.5158367  22.0603809
 -33.3735085 -28.3553028  22.1373844 -32.1365318 -28.7948895  20.9942112
 -31.6987209 -27.1718140  22.3239918 -31.9434128 -26.4776077  21.4993057
 -32.0314865 -26.8089008  23.6229515 -30.8738289 -26.4025021  24.3970127
 -30.6637077 -25.3469143  24.2181530 -31.0738983 -26.5267544  25.8267937
 -31.9349155 -27.4160538  26.3711281 -32.7378807 -27.8629684  25.7758217
 -31.8640709 -27.7021580  27.7090950 -32.5477066 -28.3417625  28.1670837
 -31.0279579 -26.7949982  28.4572659 -31.1406670 -26.8093128  29.7356815
 -30.6037025 -26.1119709  30.3150234 -31.7214928 -27.5487843  30.0647297
 -30.3068523 -25.8172684  27.9800835 -30.2855835 -25.7159042  26.6400700
 -29.5289440 -24.8445053  26.2407112 -30.1753674 -27.3088856  22.3458843
 -29.8582439 -28.2777691  21.8900032 -29.7731380 -27.3157825  23.8665581
 -29.8633347 -28.2748032  24.4408016 -28.8695107 -26.8525906  23.9976711
 -29.6213570 -26.2072315  21.4928284 -28.0303497 -26.0928097  21.3090649
 -27.7901001 -25.5257473  19.9736881 -27.3215294 -27.3712006  21.6335831
 -27.6533260 -25.0464172  22.4335194 -28.0690556 -23.6678123  22.4465866
 -29.0830402 -23.6562862  22.9486313 -28.0589199 -23.2715607  21.4698677
 -27.1399364 -22.7399101  23.2986603 -27.5258617 -21.7348633  23.0932236
 -27.3352070 -23.0411453  24.6708355 -26.0559559 -23.3366222  25.1891365
 -25.6365452 -22.4403553  25.7759018 -26.0592117 -24.4712467  26.1672459
 -26.5125751 -25.7095985  25.7580051 -26.8496017 -25.8788815  24.7474232
 -26.7028408 -26.6568108  26.6646004 -27.2009735 -27.9640331  26.1790295
 -27.0850773 -28.0299511  25.1245995 -26.6624889 -28.8096848  26.6776714
 -28.2802372 -28.0448322  26.5314255 -26.4568634 -26.4519043  28.0863495
 -26.6185951 -27.2003460  29.0089054 -25.9306660 -25.2320099  28.3379593
 -25.7084217 -25.1048183  29.2949886 -25.6557083 -24.2397709  27.4961147
 -25.0882263 -23.2128181  27.9330997 -25.5949020 -22.6887798  22.9903278
 -25.3993473 -23.2139568  22.0225677 -25.0483971 -23.6157837  24.0506248
 -25.0913467 -24.6485081  23.7551785 -24.0279388 -23.2548199  24.3578510
 -25.0708904 -21.3589039  22.9643650 -23.4816551 -21.1171474  22.7713547
 -23.2653294 -19.7358513  22.2801609 -22.9100132 -22.3157063  22.0718441
 -22.8305798 -21.1266232  24.2259140 -23.2093582 -20.0877743  25.1533413
 -24.2910767 -20.1102734  25.5258865 -23.1125793 -19.1127186  24.6809731
 -22.3439579 -20.0387306  26.4464931 -22.6539593 -19.2100029  27.0495949
 -22.5914993 -21.2400246  27.1888123 -21.2873154 -21.7269611  27.5663948
 -20.8454514 -21.1914177  28.4054241 -21.4658127 -23.1547108  28.0100040
 -21.6233139 -24.1561451  27.0023460 -21.3537807 -23.8645248  25.9604053
 -22.1120644 -25.3764896  27.2621212 -22.4865704 -26.3893871  26.1806030
 -22.2294655 -25.9608250  25.2223244 -21.8584805 -27.2129402  26.3621769
 -23.5265274 -26.8038673  26.2015419 -22.4216709 -25.7488708  28.6247139
 -22.9879990 -26.8383026  28.9980984 -22.1235943 -24.7738552  29.5821075
 -22.2767181 -25.0809021  30.6105633 -21.8222885 -23.4370918  29.3436050
 -21.7816315 -22.6415749  30.3244667 -20.8776722 -19.9440594  26.1979961
 -20.6081772 -19.6791878  25.1328182 -20.4093246 -21.4624805  26.3437901
 -20.7529202 -22.0602646  25.4835701 -19.3745899 -21.5957947  26.5093784
 -20.2275047 -19.1342754  27.1959438 -18.6824932 -18.8126698  27.2748222
 -18.7287560 -17.3269005  27.4771099 -17.9481983 -19.3772430  26.0452461
 -18.2355061 -19.6734180  28.5020542 -18.6072464 -19.2262554  29.8273983
 -19.6400013 -19.1180458  29.8667126 -18.1129627 -18.2844715  29.9059429
 -18.3608456 -20.1949081  31.0112820 -18.7503204 -19.8530960  31.9767399
 -18.9527683 -21.4085083  30.7181625 -18.0643444 -22.4518490  30.9779472
 -18.1262531 -22.6744766  31.9982986 -18.2337341 -23.6529408  30.1190891
 -18.2330933 -23.6460419  28.7249260 -17.9984627 -22.7236691  28.2085400
 -18.4743118 -24.8162060  28.0295124 -18.3268795 -24.8664455  26.5049038
 -17.3047791 -25.2228928  26.2488880 -19.1313877 -25.4870052  26.1420345
 -18.5212307 -23.8736038  26.1603947 -18.7060547 -26.1079292  28.6990223
 -19.1116238 -27.1509743  28.2488346 -18.5679493 -25.9982796  30.0162888
 -18.7780437 -26.8359852  30.5441284 -18.3897839 -24.8522053  30.7707653
 -18.4145355 -24.9382000  31.9862232 -16.9159889 -20.4181690  31.1653786
 -16.3650265 -19.7461643  30.4485188 -16.6681614 -21.8521385  30.7283382
 -16.4033585 -21.8248539  29.6201706 -15.9086838 -22.3550529  31.3352623
 -16.3883419 -20.1005516  32.4202614 -14.8280125 -19.7984276  32.6476707
 -14.7700272 -18.6837101  33.5932579 -14.0647173 -19.8468876  31.3886662
 -14.3404818 -21.1019211  33.4520645 -14.6466074 -21.1985683  34.8319397
 -15.6797295 -21.2859879  34.9882774 -14.2183676 -20.3705845  35.3784447
 -14.1578989 -22.5260925  35.4063530 -14.2134457 -22.4525566  36.5005379
 -14.9808493 -23.6092510  34.8938446 -14.1298189 -24.5961857  34.2080154
 -13.9727516 -25.4371414  34.9204521 -14.8121700 -25.1887665  33.0893440
 -14.8003931 -24.8067455  31.7481060 -14.2547865 -23.9712791  31.3395348
 -15.2324600 -25.7420902  30.9447632 -15.6877747 -26.7275925  31.7737312
 -16.2679348 -27.9796848  31.6091976 -16.6129246 -28.5168381  30.5118408
 -16.9989605 -29.4467545  30.6437988 -16.3788433 -28.1665936  29.6087742
 -16.5330353 -28.7562599  32.6287880 -16.2329922 -28.3898182  33.8913231
 -16.5722618 -28.9622555  34.6906815 -15.6944380 -27.2153301  34.1684952
 -15.3479996 -26.5052547  33.0954857 -12.7121181 -22.9105530  35.2351952
 -12.0719490 -22.0759525  34.9485970 -12.8310375 -23.8554249  34.0588303
 -12.8825865 -23.3153515  33.1348457 -11.9572716 -24.4630489  34.0512733
 -12.2798023 -23.5423870  36.4187622 -10.7202854 -23.7914162  36.6365852
 -10.6049194 -23.9985924  38.1211090  -9.9330120 -22.6235142  36.1662903
 -10.1262360 -25.0474148  35.9215660  -9.9757738 -26.3487053  36.5333862
  -9.2803411 -26.2704639  37.3857689  -9.5274553 -27.0403881  35.8332062
 -11.2769690 -27.0879593  36.8262901 -11.8633394 -26.6915684  37.6986313
 -12.2453060 -27.0290279  35.7161598 -12.9246588 -28.2420654  35.6870193
 -13.9838533 -28.1894360  35.8933601 -12.7049627 -28.8557568  34.3095131
 -12.0549145 -28.2211151  33.2743034 -11.5048628 -27.2822895  33.4179459
 -11.9874554 -28.8789444  32.2029533 -12.9418440 -29.8909397  32.4635010
 -13.5413742 -30.8020840  31.6589279 -13.3802557 -30.8678608  30.3658295
 -13.9110603 -31.5644493  29.8922634 -12.7772474 -30.1341629  29.8840313
 -14.3380966 -31.7485733  32.1887169 -14.5274172 -31.7572670  33.4759560
 -15.2328510 -32.4703484  33.7130432 -14.1435127 -30.8343887  34.3881378
 -13.3032398 -29.9779263  33.7851410 -10.9745407 -28.5756054  37.0085602
 -10.2879448 -28.9000587  36.2261238 -12.3899689 -29.1141090  36.8667679
 -12.3161039 -30.1967087  36.6650658 -13.0248156 -28.8978863  37.7224579
 -10.5255795 -28.7479172  38.3654099  -9.5807524 -29.9656887  38.7013397
  -9.2101355 -29.8269100  40.1384239  -8.5400324 -29.9719715  37.6598091
 -10.3960037 -31.2911606  38.6059723 -11.5001535 -31.5271835  39.4921608
 -12.1490650 -30.6144886  39.5592308 -11.1977186 -31.6820641  40.4705734
 -12.3541298 -32.7040710  39.0713196 -13.1959286 -32.6693039  39.7576981
 -12.8521271 -32.6560822  37.7404404 -12.2708874 -33.7546883  36.9818993
 -13.0247374 -34.5558853  36.8837547 -11.8104029 -33.2778320  35.6474342
 -10.8718128 -32.2481270  35.3641052 -10.4250040 -31.7684937  36.2172813
 -10.4865417 -31.9759102  34.0740356  -9.4043674 -30.8890896  33.8291626
  -9.2992277 -30.3000278  34.7547340  -8.4535942 -31.4192963  33.7102776
  -9.6310444 -30.1652870  33.0208778 -11.0201092 -32.6625633  32.9311218
 -10.8063011 -32.4552612  31.7416573 -11.9298820 -33.6163712  33.2840996
 -12.3306847 -34.1538315  32.5201302 -12.3863716 -33.9452171  34.4916801
 -13.2277622 -34.8484993  34.5614471 -11.5846663 -34.0146332  39.2245216
 -10.6666613 -33.8858833  39.8439674 -11.1848259 -34.3583221  37.8151970
 -10.2872334 -33.8000374  37.6647606 -11.0909538 -35.3915138  37.5933990
 -12.4106379 -34.9243393  39.8828583 -11.8859844 -36.3479080  40.4708443
 -12.7666397 -36.8450394  41.4917946 -10.5018463 -36.1406479  40.8721581
 -11.8534365 -37.2980728  39.2271576 -13.0623522 -37.6539650  38.5887985
 -13.6634531 -36.7545815  38.3290215 -13.6303091 -38.3567162  39.1839943
 -12.7341585 -38.2683601  37.2336502 -13.6486149 -38.7375717  36.8485336
 -12.3242474 -37.3685455  36.1815529 -11.3832664 -38.0988808  35.4329033
 -11.8239250 -38.8626251  34.7763939 -10.4997768 -37.1953049  34.5939865
  -9.6508160 -36.2561798  35.1571388  -9.5207577 -36.2479553  36.2587509
  -8.8890533 -35.4828949  34.3375778  -7.8565001 -34.5102158  34.9482422
  -8.0126724 -33.5003738  34.4788513  -8.0275583 -34.3520966  36.0474434
  -6.8442965 -34.8088264  34.8115349  -9.0039167 -35.5371857  32.8996925
  -8.4409437 -34.8107300  32.1715698  -9.8068190 -36.5389023  32.4411354
  -9.8106880 -36.7666321  31.4617119 -10.6398907 -37.3285904  33.2025566
 -11.2585688 -38.2504501  32.6555328 -11.8023243 -39.4695129  37.3548279
 -11.4650831 -39.6073112  38.3612022 -10.6706305 -38.9218674  36.4531517
 -10.0752258 -38.3457985  37.1239471 -10.1129265 -39.7260170  35.9072113
 -12.5123825 -40.6501427  36.8466911 -11.9209595 -42.0760307  37.1328163
 -12.9731321 -43.0627251  36.8549881 -11.1605139 -42.1547699  38.3938446
 -10.8577166 -42.1106987  36.0310326 -11.2981920 -42.3160706  34.6602516
 -11.8678265 -41.4924774  34.2723961 -11.8458576 -43.2723465  34.6006546
 -10.0607262 -42.3688583  33.7536888 -10.3037825 -42.7729378  32.7816353
  -9.7159309 -41.0850677  33.5861359  -8.3541594 -41.0937386  33.6395149
  -7.9944339 -41.3380356  32.6459656  -7.8506784 -39.7675781  33.8584251
  -7.4434791 -39.1601982  35.0747871  -7.6433311 -39.5895081  36.0973892
  -6.7133212 -38.1275177  34.7874985  -6.6286459 -38.0595207  33.4138641
  -6.0079942 -37.1839600  32.5591125  -5.2325554 -36.1879196  32.8590775
  -4.8257070 -35.6829071  32.1101189  -5.0161643 -35.8786621  33.7934151
  -6.2616796 -37.3200684  31.2533588  -7.0769138 -38.2808876  30.7971039
  -7.1399560 -38.3179054  29.7244492  -7.6820593 -39.2502785  31.4487019
  -7.4781475 -38.9741974  32.8104210  -8.8452158 -43.2018929  34.2253456
  -8.9746714 -43.8315201  35.0673485  -7.9833803 -42.1048508  34.7005577
  -8.3155937 -41.7667274  35.6168251  -6.9266958 -42.2885208  34.7457466
  -8.2488823 -43.8035393  33.0470276  -7.6939597 -45.2505074  33.0163002
  -8.8089495 -46.1739502  33.2393951  -6.5899792 -45.2167435  33.9533730
  -7.1641283 -45.2848549  31.4896126  -8.0925102 -45.1252785  30.3901386
  -8.9232235 -44.5188141  30.8281841  -8.5507784 -46.0582390  30.1489716
  -7.5555406 -44.3948059  29.0991611  -8.2932024 -44.5061111  28.3279285
  -7.2474151 -43.0540543  29.4313545  -5.9415331 -42.7830696  29.0351849
  -5.9100804 -42.4455872  28.0136185  -5.2241869 -41.8561363  29.8996315
  -5.3980045 -41.9892273  31.2150002  -5.9210725 -42.7577438  31.6831360
  -4.8701158 -41.1201591  32.0900078  -4.9946504 -41.2576752  33.1723824
  -4.0573692 -40.1077805  31.5578041  -3.3672297 -39.3246193  32.3514252
  -2.7324548 -38.5734253  32.0482140  -3.4010408 -39.4917908  33.3629456
  -3.9779069 -39.8604164  30.3064175  -4.6544070 -40.6375580  29.4169827
  -4.6843319 -40.2477989  28.2869358  -6.3301344 -44.9735260  28.4688435
  -6.2195916 -46.0178070  28.7854328  -5.2497706 -44.1349373  29.1598892
  -5.1475735 -44.5412292  30.1411839  -4.2846994 -44.4197693  28.6708374
  -6.3271408 -44.8204498  27.0862617  -5.1921778 -45.3924026  26.1691761
  -5.8915772 -45.6716805  24.8889542  -4.5556965 -46.4864120  26.8570938
  -4.0741968 -44.2711716  26.0823975  -4.3144822 -43.1999474  25.1863174
  -5.0585847 -42.5700264  25.5841351  -4.5839276 -43.5584488  24.2167358
  -3.1233821 -42.2544708  24.9352989  -3.4862223 -41.6081467  24.1582489
  -2.7101288 -41.4612465  26.0713387  -1.3016571 -41.5022202  26.2196140
  -0.8026066 -40.6301575  25.7267628  -1.1256586 -41.5176353  27.7075520
  -1.6793790 -42.4847031  28.5553207  -2.1784816 -43.3486671  28.1276569
  -1.5451258 -42.3962631  29.8956585  -2.0273669 -43.5062675  30.8352337
  -2.7320266 -43.1173859  31.4869328  -2.4089022 -44.3316498  30.2909164
  -1.2071042 -43.8970337  31.3812714  -0.8735707 -41.2834244  30.4872856
  -0.5969594 -41.2844887  31.6720085  -0.4668661 -40.2621307  29.6319809
   0.1980208 -39.5837631  29.9915199  -0.4899296 -40.3616753  28.2781277
  -0.0172266 -39.4539032  27.6763382  -1.9203514 -42.9355240  24.3334217
  -2.0917711 -44.0153923  24.2373219  -0.9444923 -42.7381744  25.4755249
  -0.9741622 -43.6416740  26.0665894   0.1194089 -42.6513290  25.1036434
  -1.4585758 -42.3323860  23.1388664  -0.1328621 -42.7543144  22.3785992
  -0.3639199 -42.3412971  20.9557533   0.1246377 -44.1526718  22.7446003
   1.0469297 -41.8453445  23.0251846   1.1148411 -40.4435310  23.0411186
   0.1751292 -40.0270348  23.3949051   1.3281611 -40.0881081  22.0409393
   2.2055349 -40.0559692  24.0290718   2.2292013 -38.9725685  24.2557831
   1.8331636 -40.5421982  25.2986069   3.0105369 -40.4120522  26.2049656
   2.9335694 -39.4043541  26.4726181   2.8887944 -41.3130875  27.3781624
   2.2975168 -42.5686684  27.2998924   1.9111246 -42.9092598  26.3446598
   1.9889902 -43.3216400  28.3777847   1.2114909 -44.6220703  28.2919521
   0.2642998 -44.5400505  28.8327503   1.0664712 -45.0211296  27.3536797
   1.7650073 -45.3861542  28.8239117   2.4209650 -42.8758049  29.7182713
   2.1148746 -43.3380699  30.8242435   3.1436980 -41.6437874  29.6586514
   3.4574380 -41.2639885  30.5263176   3.2571373 -40.7623978  28.6043110
   3.7850435 -39.6553154  28.7465096   3.6627100 -40.5467491  23.7839699
   3.7536664 -41.4828987  23.2206440   4.2155423 -40.7622414  25.2693768
   4.5467248 -41.7690620  25.4789219   5.0689645 -40.1558151  25.4425869
   4.5287623 -39.5801888  23.2197685   5.9686160 -39.9848824  22.6010818
   6.3671770 -38.9260025  21.6532898   5.7746038 -41.3922081  22.0821018
   7.0047841 -39.9348640  23.7891998   7.4625983 -38.7601509  24.4576855
   6.6389475 -38.1149139  24.6994743   8.0911045 -38.2376442  23.7046413
   8.3476667 -39.0438957  25.6526814   8.8176336 -38.1141243  25.8926754
   7.6660976 -39.7126350  26.7128468   8.4326458 -40.7548409  27.3272781
   9.2189779 -40.3617859  27.9587154   7.4897757 -41.5853310  28.1310825
   6.7664995 -42.7355576  27.7650223   6.8088517 -43.2991600  26.8304958
   6.2103958 -43.3220825  28.8342342   6.5353360 -42.4875183  29.9357948
   6.2973914 -42.5703773  31.3291779   5.4784937 -43.2408676  31.9138660
   6.8840165 -41.5680046  32.0590172   6.7945056 -41.6367836  33.0987930
   7.7552052 -40.7266464  31.5754166   8.1205883 -39.8282127  32.4633484
   7.7197924 -39.7601166  33.4166183   8.6337881 -39.0842514  32.0599365
   7.9442511 -40.5346985  30.2901764   7.3268895 -41.4337959  29.4684391
   9.5373793 -39.9428215  25.3956947   9.6906996 -39.9133720  24.3054943
   9.1014061 -41.3142929  26.0307541   8.4572105 -41.7659988  25.3566742
   9.9108887 -41.9658318  26.1684456  10.6163130 -39.4718857  26.2129498
  11.7960587 -38.6184235  25.5557308  11.2111349 -37.4671707  24.8655243
  12.6512671 -39.6013184  24.8600597  12.5205755 -38.1319618  26.9137230
  12.0641565 -36.9980621  27.7166805  10.9138813 -37.1210785  27.7953434
  12.2759781 -36.0964546  27.2321529  12.6454382 -36.8357887  29.1268368
  12.6186552 -35.8003922  29.3593178  11.9219637 -37.7654037  29.9545231
  12.8365221 -38.7066994  30.4612617  13.0518675 -38.5344849  31.4454346
  12.2245321 -40.0530014  30.3512211  11.7672949 -40.4910965  29.1406078
  11.8697634 -39.9507408  28.2438564  11.2494078 -41.7475090  29.0753403
  10.9711266 -42.0692863  28.1064053  11.0024052 -42.4638252  30.2454700
  10.4773455 -43.6305313  30.1954689  10.3235083 -44.0575714  31.0332298
  10.1714325 -43.9857712  29.2933807  11.2756901 -41.9660797  31.4322796
  11.7707844 -40.7159996  31.5457497  11.9017534 -40.2317390  32.6742973
  14.1036959 -37.1397743  29.0924377  14.4405565 -37.0883408  28.0418282
  14.1330748 -38.5685463  29.5962315  14.0345659 -39.2780800  28.7869453
  14.9990797 -38.8222122  30.2008228  14.9806900 -36.2028809  29.7511330
  16.6286411 -36.3096657  29.9522152  17.0768509 -35.0537682  30.5826168
  17.2206078 -36.7292175  28.6703568  16.7839108 -37.4412193  30.9970398
  16.3379955 -37.3382797  32.3207703  15.4240761 -36.8107224  32.3319206
  17.1641159 -36.7329712  32.7530746  16.1880207 -38.5724487  33.1151581
  15.7786217 -38.2744408  34.0393944  15.1749973 -39.4517326  32.6128197
  15.5175085 -40.7658310  33.1041489  15.1789370 -40.8204231  34.1470604
  14.8630009 -41.7825241  32.3245049  14.8060579 -41.8937149  31.0222149
  15.2208529 -41.1538773  30.3285522  14.1667633 -42.9267616  30.6547928
  13.8018913 -43.6374092  31.7771111  13.0768414 -44.8539810  32.1668930
  12.5920362 -45.7931824  31.3150253  11.8629980 -46.4379196  31.6980686
  12.7402105 -45.7274170  30.2957840  12.7430706 -45.0595016  33.4277725
  13.3664904 -44.3113556  34.3741684  13.2339478 -44.6359634  35.4778442
  14.0575256 -43.1989784  34.1323891  14.2586880 -42.9053078  32.8340836
  17.4537201 -39.4506989  33.3325996  18.3492584 -39.1008263  32.7657127
  17.0358658 -40.7631569  32.9385452  17.2100430 -41.0506439  31.9025650
  17.5969162 -41.5188179  33.4504623  17.6994247 -39.4813690  34.7743111
  19.0018368 -40.1550179  35.4913292  19.6001358 -39.1401901  36.3521156
  19.8458729 -40.7062988  34.3955078  18.5120258 -41.4232712  36.3109055
  17.6079483 -41.3007660  37.3356361  16.6441898 -40.8518333  36.9799042
  18.0528355 -40.6359596  38.1074028  17.2871265 -42.6823959  38.0671425
  16.8238945 -42.3910065  38.9877586  16.4222794 -43.4272842  37.3175049
  17.1154976 -44.6101532  36.9999504  16.8079395 -45.4344635  37.6434746
  16.7523994 -45.0256271  35.5900841  17.2668533 -44.3462105  34.4872932
  17.8169460 -43.4261856  34.6355820  17.0369282 -44.8035469  33.2450829
  17.7039070 -44.1587944  32.0495491  18.2980042 -43.2978745  32.3441429
  18.3199215 -44.8472176  31.4619503  16.8848457 -43.7330551  31.4107876
  16.2121849 -45.9621162  33.0135193  15.9663467 -46.4770317  31.9387684
  15.6745281 -46.5342979  34.1609497  14.9520941 -47.2669411  34.0220642
  15.8927975 -46.1599197  35.4580574  15.5226068 -46.8565788  36.4074287
  18.5391006 -43.5272179  38.4088097  19.4206448 -42.8224602  38.4410286
  18.6407185 -44.3949127  37.1926384  19.1337299 -43.7261505  36.4690361
  19.1893520 -45.3082695  37.3367271  18.3706455 -44.2733002  39.5809860
  19.5512657 -45.2178726  40.1561508  19.6617584 -44.7686958  41.5858116
  20.7560444 -45.0178413  39.2642365  18.9839725 -46.8279762  40.0726509
  17.7339840 -47.1786537  40.7238731  16.9329052 -46.5707626  40.3536568
  17.9161434 -47.0610313  41.8128700  17.4798679 -48.6785316  40.5375786
  16.7412643 -48.9138718  41.2791138  16.8818474 -48.8917236  39.3252411
  17.5417061 -49.9673309  38.6648521  17.0108013 -50.8775749  38.8747940
  17.5857430 -49.7510643  37.2356339  18.4421520 -48.7904358  36.6948624
  19.0527992 -48.1331100  37.2911224  18.4907398 -48.5499573  35.3766327
  19.5115166 -47.5231590  34.8586807  20.0134945 -48.1484032  34.0979042
  18.9208603 -46.7184525  34.4572906  20.1048985 -47.2012024  35.7372932
  17.6350708 -49.3215790  34.4691277  17.4727764 -49.1565933  33.2890320
  16.8618622 -50.3020973  35.0426826  16.2842197 -50.9018936  34.4566574
  16.7872086 -50.5438385  36.4181938  15.9481478 -51.2944603  36.9066620
  18.5075016 -49.7538834  40.8374100  19.3717270 -49.2829285  41.3948708
  18.9288826 -50.1653519  39.4220886  19.6416359 -49.4270821  39.0505180
  19.4635258 -51.1295128  39.4104996  18.0596943 -50.8339729  41.6269035
  19.0868034 -51.9039879  42.2679367  18.3550491 -52.6399002  43.2638855
  20.3692493 -51.3308945  42.6749077  19.4212494 -53.0501518  41.1756325
  18.6955624 -54.2505684  41.0289154  17.6201496 -54.0829964  40.8024712
  18.8326206 -54.9212570  41.8777580  19.1900635 -55.0086174  39.7506599
  18.7991142 -56.0238800  39.7444954  18.8420162 -54.2689209  38.5499649
  19.9872189 -54.2849731  37.7273026  20.1165562 -55.2676048  37.2968063
  19.9042797 -53.3163338  36.6467400  20.3197021 -52.0331764  36.5806465
  20.7648106 -51.4946060  37.3741417  20.1588326 -51.3884201  35.4353676
  19.6625881 -52.4253273  34.5987587  19.2832146 -52.4761925  33.2241325
  19.2933025 -51.5347061  32.3645897  18.7678776 -53.7302246  32.7801132
  18.2618694 -53.7341194  31.8575077  18.5759945 -54.7417526  33.6255264
  18.0331650 -55.8819466  33.2396774  17.9115925 -56.0646400  32.1990967
  18.0810242 -56.6274147  33.8918610  18.8618679 -54.7720795  34.9387970
  19.4023170 -53.5840607  35.3580818  20.7230473 -55.2293053  39.7895699
  21.0936451 -55.1533585  40.7732582  21.0622330 -54.1904449  38.7699165
  21.0685368 -53.2100945  39.2591858  22.0854130 -54.4214554  38.3507690
  20.9850407 -56.4636230  39.0988922  21.9864845 -57.6216125  39.6126862
  21.6498470 -57.8795013  41.0249596  23.3701935 -57.1549950  39.2314682
  21.6882000 -58.9589539  38.8049545  20.3788471 -59.5881920  38.8306313
  19.6578026 -58.8817635  39.1498222  20.4307594 -60.4143448  39.5606079
  20.2035961 -60.1045380  37.4195862  19.2832298 -60.7328491  37.4180374
  20.1253471 -58.9181938  36.6364021  20.9645443 -59.0102425  35.4505310
  20.4041233 -59.4506721  34.6110840  21.5633755 -57.7658501  35.0257835
  22.1478443 -56.8876572  35.9139824  22.2113972 -57.2150269  36.9270935
  22.5151482 -55.6396141  35.4840393  22.9176407 -54.9262619  36.2500610
  22.2357349 -55.2512016  34.1861877  22.5319176 -54.0650368  33.8147697
  22.2789516 -53.9270287  32.8613205  22.9520950 -53.4044952  34.4436188
  21.7847176 -56.0986023  33.2891006  21.4273205 -57.3562431  33.7130432
  20.9853382 -58.1446457  32.8396072  21.4028912 -60.9575653  36.9195976
  22.0978127 -61.2365723  37.6211586  22.0660553 -60.0349083  35.8977737
  22.8588638 -59.5169373  36.3538589  22.4282341 -60.5385971  35.0125198
  20.8401985 -62.0431824  36.2074623  21.7332077 -63.2284126  35.6661758
  20.7356987 -64.3349609  35.6234207  22.9356441 -63.2686920  36.4984016
  22.1911087 -62.9339142  34.2133255  21.1665058 -62.7872314  33.2612419
  20.3332024 -62.0618820  33.5677834  20.7980480 -63.7761612  33.0302963
  21.7952843 -62.1959190  32.0237350  21.0290909 -62.1403618  31.3075638
  22.2245579 -60.9243011  32.3233795  23.3263302 -60.5576782  31.5237274
  22.9353256 -60.3816605  30.5590134  24.0421410 -59.4563828  32.1121941
  24.5175343 -59.3433762  33.4168587  24.4720936 -60.1019020  34.1771622
  24.7823601 -58.1284103  33.7271652  24.6484337 -57.4217148  32.5522766
  24.8281479 -56.0810699  32.1166077  25.0817966 -55.0465012  32.8855553
  25.2731056 -54.1522675  32.4472847  25.0545425 -55.1642952  33.9172783
  24.6597424 -55.7538795  30.8373146  24.2981033 -56.6702919  29.9852276
  24.1636295 -56.3468666  28.9342422  24.0036736 -57.9196777  30.2667027
  24.2668972 -58.2538223  31.5395317  22.9030952 -62.9726982  31.3829727
  23.1131763 -63.9509087  31.9079418  24.0140247 -61.9248734  31.6143742
  24.5449810 -62.1491547  32.5496902  24.6836376 -61.9621201  30.7908707
  22.4740276 -63.1513557  30.0240936  23.2754707 -64.0401611  28.9688740
  22.2215557 -64.6199036  28.1029129  24.1049118 -64.9433746  29.8485947
  24.2636757 -63.0745621  28.2394772  23.8018799 -62.2394524  27.1675701
  22.9328442 -61.6786461  27.4024696  23.6352844 -62.8898964  26.3155632
  24.8772049 -61.2068253  26.7124043  24.5631695 -60.7786331  25.7803650
  25.1150589 -60.1550217  27.7202740  26.4747887 -59.9733009  27.6343956
  26.6712627 -59.3136940  26.7843304  26.8868656 -59.2316895  28.8262901
  27.0399075 -59.7188187  30.1223888  26.8607655 -60.7761650  30.3673382
  27.4017277 -58.8253860  30.9922848  27.5162601 -57.7295303  30.2011948
  27.9523411 -56.3869705  30.4984818  28.1358795 -55.9044113  31.6709003
  28.2326412 -54.8757477  31.6951637  27.8216896 -56.3989792  32.4759598
  28.1616802 -55.4544792  29.5604324  27.9633732 -55.8657913  28.3121185
  28.1122055 -55.1077843  27.5664692  27.4822788 -57.0185127  27.8542671
  27.3832912 -57.9353371  28.8677177  26.1391144 -62.0207062  26.4016838
  25.9614716 -63.0552063  26.5509205  27.0586662 -61.3723526  27.4235268
  26.9510765 -61.8560753  28.3717785  28.1318855 -61.3348656  27.1767502
  26.7050591 -61.7761574  25.0859928  27.4227352 -62.3860130  24.9755020
  35.1859856  -4.3479023 -43.4245987  33.9041176  -4.3595977 -43.3596573
  35.7584648  -4.3886847 -42.0452080  33.5782471  -4.3243489 -42.0255775
  34.6697922  -4.3948059 -41.2428627  34.6921539  -4.5475230 -39.7305756
  34.8738632  -5.9413276 -39.0722923  34.1793365  -6.9745545 -39.7936745
  32.8060684  -7.2242579 -39.7591438  34.6855202  -7.5741677 -40.8917427
  32.5462952  -7.9980426 -40.8588867  33.7461510  -8.2568016 -41.5234184
  35.9101715  -4.2297912 -44.7207146  37.0513115  -4.5148177 -41.6616669
  31.3671894  -8.6492825 -41.2522850  31.9391880  -6.8511090 -38.5938110
  31.9463120  -7.7850118 -37.4120522  31.0467052  -7.2643113 -36.2484055
  33.3098564  -7.8692861 -36.8041077  31.3872662  -9.0970860 -37.7203026
  29.5291405  -6.7798729 -36.4628525  29.4050026  -5.1666737 -37.3215294
  34.2774696  -8.9605932 -37.3106995  35.8591347  -8.7372484 -36.4508820
  32.5786972  -4.2244163 -41.6048660  35.3573990  -3.7846496 -39.2525444
  33.6050339  -4.3106451 -39.4676247  35.9145699  -6.1341720 -39.0863914
  34.7398415  -6.0094280 -37.9720573  35.7443810  -7.4159341 -41.2200699
  35.2905350  -4.2639809 -45.8399773  37.9032440  -4.5321388 -42.2705612
  37.3070030  -4.5650220 -40.5760384  31.3691559  -9.1576624 -42.3672485
  30.3358231  -8.5808458 -40.5227547  32.3090324  -5.8839021 -38.1783142
  30.8500862  -6.7406507 -38.7830315  31.0900402  -8.0653028 -35.5112457
  31.6520691  -6.4201331 -35.8246269  33.7528648  -6.8838282 -36.7929382
  33.2222862  -8.1189499 -35.7478218  32.0356102  -9.5078592 -38.5497131
  31.4707985  -9.7604036 -36.8382568  30.4401627  -8.8931513 -38.0533257
  28.9492874  -7.4485168 -37.0689011  29.0396576  -6.6800909 -35.4885216
  33.8371086  -9.9724216 -37.0271645  34.4945908  -9.0220671 -38.3520164
  37.1190262  -4.2027116 -44.7647247  32.0857773 -16.8067589   0.7196672
   9.3358040 -18.2419205  47.2285500   5.6347251  21.8297787  10.8880033
  20.5991192 -37.0081558  13.9559917  -2.7500157   7.6256504   2.0502326
 -23.7554092  -4.4990268  26.3458328   7.2279301   2.2530599  25.8405418
   3.5347657 -18.5614300 -21.8119736   9.9424915  18.9566669 -31.5631618
   4.3161077 -11.7737207  -5.4929600  10.8757238 -27.6864605  41.0200539
  -2.1973171 -44.5720444 -20.8605671 -41.4815636  10.0174837 -14.4288197
  22.0905743 -36.4836426  29.3902912  33.3119278 -20.1404057   8.2228212
 -31.5341263 -18.8393898  19.9090385 -41.1181755 -33.1715469 -17.9381294
  -2.3158855 -39.5864296   9.4598799  42.2295532 -10.7326183  -6.3855639
 -29.5776901  -4.8449621  22.7140312  23.6044769 -19.2472420  35.5283279
  18.4171009  22.2581730 -31.3744011   4.7279549   2.9721932 -37.5673447
  34.1955605  20.5798092  18.0363712 -14.2449942  25.9405804  14.2091503
  29.2861633 -17.1228371  20.4877014   9.6745453  45.7620926 -17.5038681
  38.6836548  22.8067188  14.7999697 -43.6662712  22.4269600 -14.2697620
  20.5967941  32.6623383  19.7216434  -8.1205502   1.7874342  13.8814983
 -14.4321795  27.0952320  42.5350838  12.5958958  12.3477402 -34.3977013
 -10.1659203   7.9014258 -53.7242661  31.8353081  36.0921707  15.8822746
   3.0471513  19.3365288 -27.9361496 -39.5607185  -9.8826237 -17.4999161
  41.6745987   0.3480217 -34.4574547  -1.5302454   3.3455517  31.1174812
  -1.3310299   2.3771241  31.1026859  -0.7357755   3.7399535  31.4179611
  -7.0090203 -21.4065247   6.3206539  -6.9973989 -22.3840637   6.2399969
  -7.8968291 -21.1857738   6.0632048 -13.7200928  25.3898411  44.0010948
 -13.0220575  25.6691952  44.5996246 -14.0884609  24.6245270  44.3239212
   3.2920518 -13.1681671  24.5088463   2.9578104 -13.3443861  25.4099236
   2.5828671 -13.5261717  23.9622307  29.7660141 -29.0346146  21.2868767
  28.9623260 -29.5604916  21.2293701  29.3853436 -28.1632881  21.5569515
  -3.1443720  21.7346020 -19.6486950  -3.6770790  21.7499046 -20.4410553
  -2.5615492  22.5434666 -19.8118057  23.3793755 -32.3885574  16.1145706
  22.9801311 -31.4602470  16.0909157  22.9959145 -32.7191734  16.9403324
 -13.9898243   2.5632944 -39.3159752 -14.8947382   2.6808448 -39.0179443
 -14.0638456   2.9392130 -40.2120934 -23.6212101   1.8902844 -18.2646885
 -23.6284294   1.0167909 -18.8400803 -24.1418266   1.4944699 -17.5255241
  38.4242210   2.9585314 -21.0656681  37.5173683   3.2706087 -20.9999180
  38.7345848   3.5403357 -21.7619476   5.2751956  33.3644447  11.6519251
   5.0974374  32.3983994  11.5802107   4.6345267  33.7573051  11.0753078
 -24.4888973  18.1062107  12.7531567 -24.1885681  18.2657928  13.6983309
 -24.0259838  17.2408905  12.5557632  10.6910257 -36.4795532  -7.8129606
  10.2069769 -36.5120087  -7.0473633  10.5007668 -37.3521767  -8.2009573
 -40.7863617  16.7655754  -5.4493432 -41.1059570  17.1061172  -6.2929630
 -40.2812080  15.9965658  -5.7840323  36.7132149  23.9021187  -1.5415832
  36.3808594  24.6241455  -2.1976874  37.1799240  24.5305462  -0.9634731
  36.3815689  -8.4306202  24.7578125  37.0623703  -8.8857069  24.1231937
  36.9373512  -8.3593225  25.5603390 -16.2464542  32.7324257 -34.9250717
 -16.4153118  31.7851639 -34.9235077 -16.3467484  32.9038429 -35.8365211
 -21.3618259  -0.2373507  26.8345528 -20.6863976   0.0900772  26.2434158
 -20.8897457  -0.6794892  27.5398712  -6.8952155  17.6252842 -45.1299667
  -7.8580213  17.3996372 -45.0631676  -6.4897156  16.7470646 -44.9000206
  30.2739391  -4.9012899 -33.0629692  29.9376869  -4.1102271 -33.5733643
  29.5121784  -5.1585646 -32.5182991  -1.8864568  -6.5593114  32.1266289
  -2.3471801  -7.1355944  31.5257492  -0.9847010  -6.9513493  32.1120834
   5.3966155 -13.9321060  46.8405457   4.5692363 -14.4686537  46.9636803
   5.5591393 -14.0371122  45.9051018   0.7197561  10.1326580 -34.9930878
   0.1570386   9.5317936 -34.4192886   1.5405174  10.0662737 -34.4638443
 -27.3541279 -16.8307610 -16.5410805 -26.6122551 -17.4924240 -16.5355377
 -26.8401012 -16.0530052 -16.8431358 -31.3239155 -16.2110233 -20.7557106
 -30.9662952 -15.5723610 -21.3587341 -30.5317249 -16.7211552 -20.5507393
  28.1404533  -4.6363411 -30.9496098  27.4536285  -4.7653422 -31.6614933
  27.7104778  -3.8525388 -30.4862156 -20.6636658  34.4324837  -5.2485752
 -20.2032509  35.1547623  -5.6381531 -21.1444149  34.9670830  -4.4665003
  21.4100800  -7.4709010  -0.5854554  22.1882629  -6.8868041  -0.4468209
  21.6661510  -8.2353840  -0.0890309  14.8162432 -13.2886295  27.5498219
  14.5005989 -13.4897518  26.6134796  15.0531816 -14.2343607  27.8102264
  14.8978930 -34.8386955   6.9953985  13.9796934 -35.1583023   7.2026587
  15.2613125 -35.6156387   6.5122032  10.8116446 -42.1054039   9.8229971
  10.4038105 -42.2079582   8.8890419  10.4869995 -42.8487892  10.3060827
  31.0665607 -14.3877068  38.5221138  31.6973267 -15.0607986  38.7963715
  31.2884445 -14.2196970  37.6476593  10.4603395 -23.5909004 -13.2346802
   9.8477087 -22.9655132 -12.7492008   9.7998619 -23.9429874 -13.8772039
   5.4290085  12.4083576  35.4456139   5.3037887  11.4429493  35.7581673
   5.9369674  12.1826382  34.5892792 -40.6706848 -20.4091339  11.5438557
 -41.2168312 -19.9338665  12.2291212 -41.0273094 -20.0208931  10.7494383
  34.0907059  35.7966995  16.1511707  34.6515045  35.0934258  15.7852879
  34.7598419  36.1839981  16.8253651  41.0626869  -4.5947700  28.0080738
  41.8935928  -4.8249483  27.5213356  41.2466621  -5.0346475  28.8742352
  34.8813324  31.0339584  -1.7744071  34.1964951  31.1974430  -1.1095990
  35.6905174  31.2961140  -1.3317187  23.3771076  11.4971037  -5.2289691
  23.5555687  10.5522156  -5.4023633  23.2432327  11.9026957  -6.1291032
 -17.4839153   7.7865214   1.9503623 -16.7622643   7.1431360   1.8683611
 -17.1463661   8.2915277   2.7280602  15.1558905  10.2557516  -7.9065828
  14.4306431  10.7558098  -7.4499416  15.3697147   9.6196423  -7.1926117
 -18.0998383  12.5109186  29.7614174 -18.3380299  12.7363672  28.7965145
 -18.2169075  13.4213028  30.0974426 -21.7535667 -20.4016685   2.2836220
 -21.8068542 -19.4406395   2.3408492 -20.7538242 -20.5018635   2.2058876
 -40.3515320  23.9870014  11.6823549 -40.2150879  24.4582100  12.5716629
 -40.9335251  23.2892704  11.9185543  11.3006630  -0.9927339  39.9731598
  10.6886625  -0.4704144  40.5319862  11.2771244  -0.4499829  39.1653862
  39.9534531 -28.7595615  21.2444267  40.2660065 -28.0448074  21.8491440
  39.6281242 -28.2449703  20.4841175  28.2241516  20.7412968  -3.7081859
  28.7295647  21.3985424  -3.2234280  27.5766716  21.2613964  -4.2104764
  26.6808167   2.5322776  12.4827633  27.6725101   2.4800072  12.5701189
  26.5477390   3.4544356  12.7930393 -17.4755325  -3.9642632 -14.3669291
 -17.5538235  -4.5793862 -15.1094227 -17.3597393  -4.5260820 -13.5773773
  -7.6160812 -16.4415817  13.2395601  -8.4726295 -16.4871387  12.7630262
  -7.9264040 -16.4151363  14.1878452  29.9078693 -30.7222576 -20.5035152
  29.6206322 -30.8199768 -21.4737473  30.7377300 -31.2165508 -20.4742336
 -43.3258171 -24.6281738  -5.3193793 -43.3726425 -23.8300762  -4.6956902
 -43.7213593 -25.3169765  -4.7509971  -3.6360705   1.7817113 -34.5209503
  -4.3632007   2.4407156 -34.2974815  -4.0608306   1.3893644 -35.3438950
   3.6106591  -2.2909079  -3.7679951   4.5589428  -2.3203065  -4.1143875
   3.5819178  -1.4972903  -3.2264080  -6.0718575   8.0035048 -16.0533180
  -6.6708784   7.2470345 -16.2757702  -5.8690815   7.8544297 -15.1067429
   5.1183391 -13.1583996 -22.8467331   5.7596121 -12.5347843 -23.2662640
   5.2275248 -12.8497877 -21.9620934   8.8141460 -18.4620571 -15.5178452
   9.7596130 -18.2562122 -15.2671356   8.7226238 -19.2605209 -14.9842663
  39.1103096  -8.8093653  -3.3068523  39.6841774  -8.4692287  -2.5930150
  39.0260544  -9.7450895  -2.9874871  18.4092026 -12.6180248 -21.6329803
  18.0998859 -12.5152102 -20.6996517  19.3501587 -12.8849707 -21.3678837
   8.6181917  -3.1001308 -40.4637566   9.5110979  -3.0551896 -40.9130173
   8.4789715  -4.0424538 -40.5179749 -29.2074032  19.7351799  18.7666359
 -28.8531704  20.2468243  18.0070534 -28.4480228  19.8297958  19.3610859
 -12.0673561  23.7093163 -37.8268280 -11.7980232  23.2258968 -36.9910812
 -12.8792696  24.1120224 -37.4460182  37.9834633 -14.3043137 -30.7269764
  37.2003784 -13.9808226 -30.2425041  37.8784637 -13.7638264 -31.5713043
 -40.4427490  27.8917332 -21.5024548 -39.7730179  28.5667400 -21.8407497
 -41.0344124  28.5030251 -20.9705067  32.3811417  -4.9890709  -4.0841637
  32.3549843  -5.1754298  -3.1607177  32.5385971  -5.9004984  -4.4768167
  -6.8092947  -2.0231423 -49.4524498  -6.6244278  -2.8266931 -49.9253426
  -6.8418708  -1.3684633 -50.1847916  25.2158203   0.2235192 -14.9793282
  26.0508251   0.1821312 -15.5183811  25.3499050  -0.5772952 -14.4380922
   3.6058397  45.2819252 -21.6519489   4.1712952  45.9735107 -22.0779972
   2.7397933  45.5888634 -22.1544781 -30.5070858 -23.6105080 -27.5613689
 -30.5090218 -22.7112160 -27.2001190 -30.5845261 -23.5168552 -28.4776821
  27.7365265  23.2500477  28.5433445  28.3682575  22.5013371  28.5112705
  28.0151463  23.6623344  29.4206657  30.2510395   1.2784700 -30.0049496
  30.7642365   1.4590904 -30.8375168  29.4069290   0.9088594 -30.4083576
  13.6982880 -12.8609314  21.9088173  13.3368502 -13.7146482  22.2886314
  12.8446388 -12.4252424  21.7695084  31.8778343   7.3447051  21.2886753
  32.0363579   6.4983435  21.8002338  31.0342064   7.0779338  20.8427658
  23.7452450  15.4301472 -28.1273804  24.7067680  15.4775238 -27.9298115
  23.7655678  15.1153746 -29.0120316 -32.6511536  30.4065456  -1.5713419
 -32.5515823  30.6699257  -0.6031405 -32.3725166  29.4239521  -1.4034157
  17.8699551  -5.1108990 -10.2380648  17.6823215  -5.1123900  -9.3171577
  18.8431110  -5.3395109 -10.2633677  24.9368973  -0.1855919  28.7519569
  23.9593468  -0.1549519  28.6666794  25.0306549  -0.1410031  29.7245731
 -36.2157364  33.8913841  18.4864845 -35.2630386  33.9750252  18.3376808
 -36.1835823  33.7685585  19.4240932 -33.9777832  22.4562836   1.6591269
 -34.4862404  22.8993702   2.3852310 -33.4736824  21.8214970   2.1982675
 -33.3725739 -37.4464455 -17.2164631 -32.8877449 -38.2628899 -17.0821209
 -33.8902283 -37.2781410 -16.4522858  -9.4862757  14.8904724 -46.3543701
  -8.7344398  14.4886694 -46.8143196  -9.7712727  14.1029921 -45.8315430
  11.8647938   9.5864935  35.3573990  12.0024853   9.2830429  34.4268036
  11.0940466  10.2129889  35.2564049  10.6733255 -25.2287712  -9.8888035
  11.2023878 -26.1281071  -9.7549524  11.1891747 -24.9641457 -10.7097263
  35.6459084 -33.0200958  -9.7947540  36.0859756 -32.1847801 -10.1101503
  34.7054558 -32.7929420 -10.1644468  -2.5445919 -29.1216373   8.7311840
  -3.5177743 -28.9939709   8.7714405  -2.2384222 -28.3072109   9.2151804
  16.6432724 -38.0883408  14.9280272  15.8458433 -38.1714668  14.4106245
  16.2307091 -38.2285843  15.8048887  -2.2151098 -26.3012829   5.4181023
  -2.8631294 -26.5271587   6.0552282  -2.1612675 -25.3476524   5.5155406
   5.9785209  48.0604401   5.3818660   6.3663244  47.8014526   4.4916315
   5.4208236  47.3260269   5.5597944  -5.6012492 -42.1821899 -10.7652645
  -6.0280576 -41.3026047 -11.0061846  -4.7646885 -41.7993164 -10.3662386
 -27.3363247  35.6124878   3.2206941 -26.5304184  36.1466789   3.3904684
 -27.9353886  36.2473450   2.8042200  26.7034721   6.8406382  36.2350845
  27.4912262   6.9808736  35.6749039  26.0171795   7.2051568  35.6930847
 -25.4896278  20.8072720  -7.0528712 -25.5760059  20.2999153  -6.2213907
 -26.3223400  20.5351334  -7.4687223 -15.1103697  -2.4784286   9.2536020
 -14.9727106  -2.9510469   8.4185534 -14.7917185  -3.0351169   9.9511538
  38.5577431  17.2409115  13.6457949  38.1181221  17.8617325  13.0474482
  39.4955444  17.5752258  13.6065121  -0.0854400  14.4164963  43.4014244
   0.8390809  14.2734375  43.0486488  -0.5959390  14.5689802  42.5709000
   1.7679497 -16.9351730 -21.1035194   1.7752481 -16.3363323 -20.3237858
   1.8430814 -16.3031883 -21.8645611 -23.0270863  35.3138580  20.2734470
 -22.2627449  35.6151886  19.6973763 -22.5370293  34.9445190  21.0229588
  16.3333244   5.2959638   5.6075735  15.4799318   5.8122997   5.4641685
  16.8749752   6.0401034   6.0861716   9.3194208  10.1014500   5.0325470
   8.9502029   9.3228493   5.5049210  10.1965618  10.1586266   5.4931250
 -10.7975359  28.2396812 -25.1896095 -11.1016397  27.9078064 -24.3149490
 -10.3901205  29.0992813 -24.8701782 -18.8136959  -3.6723242   3.5825894
 -19.0385456  -2.8849037   4.0763884 -19.6800880  -3.9596364   3.2324545
  -1.3453829 -21.7798080  23.2564049  -1.2887107 -21.5872746  22.3300610
  -2.0008967 -22.4973888  23.2875614  25.5406170  -5.1823144 -25.0600452
  25.9367199  -5.1964588 -25.9322433  25.7506046  -6.1526747 -24.8261757
  20.2105865  20.7846413 -23.7506390  20.0353737  21.5593662 -23.1654930
  20.6766663  21.2055035 -24.5238018 -11.4338827  10.3510370  -2.9914222
 -12.3619423  10.2641916  -3.2762926 -11.0291634   9.5295620  -3.2046080
 -21.8744221  23.2189770  19.6494408 -21.5248795  23.7703857  20.4011383
 -21.8976212  22.3362083  20.1339054 -13.5106802 -29.9635906 -16.5442123
 -13.9341698 -30.8109303 -16.7617683 -12.5467739 -30.2013817 -16.5628662
   3.8959806 -14.6792936   6.3083682   4.8700762 -14.7606516   6.2175250
   3.6349888 -15.5171833   5.9708495  18.9075184 -12.5106840 -15.0065775
  19.5010204 -13.2999783 -14.8604345  18.3794785 -12.8199883 -15.7438564
  -9.5649233   6.1660690  22.8208675  -9.6167040   6.4296756  23.7439060
  -8.6351967   5.9395871  22.6626091  28.3374386 -36.2084808 -12.2155762
  28.3711891 -36.8583107 -11.4925966  28.3877926 -36.7908897 -13.0207129
  -3.6663911 -16.4734821  -1.2270974  -3.5872626 -16.0623932  -0.3381055
  -2.7560308 -16.5121632  -1.5394962 -28.5548172 -14.9044285 -32.9476814
 -29.4427357 -14.7583246 -33.3129272 -28.5608902 -14.3133802 -32.1766167
 -22.5757771 -32.2430954  -3.4062722 -23.2973747 -32.5875359  -2.8879981
 -21.9537735 -31.8813744  -2.7711067 -18.4205971  -0.9888430  21.5991611
 -18.7387352  -0.0699110  21.7629719 -17.4988937  -0.8747112  21.4937134
   2.4328148  12.2658653 -35.6509476   1.6248883  11.7161665 -35.4625282
   2.9318907  12.1898088 -34.8061562  17.2750626  -6.8845024  23.9353352
  16.7153912  -6.9873743  23.1335106  16.8899288  -7.5262375  24.5502853
  19.8825340  -3.7343979 -46.7070961  19.1575603  -3.6591952 -47.4530067
  20.1116600  -2.8029580 -46.7624626  -9.8336620   4.1325426 -43.4569435
  -9.1632223   4.2690105 -42.8029556  -9.8884096   4.9889956 -43.9300690
 -36.8011894   5.2891607  23.9183044 -37.5964050   4.7368445  23.8271751
 -36.2836914   4.9236355  24.5783310 -33.2958069 -33.0849571   2.7795012
 -33.3978004 -33.8937149   2.2274206 -32.3695641 -33.2220497   3.0809429
  -3.0873590  29.8548775  -5.4730959  -4.0653291  29.5637321  -5.5635829
  -2.7346241  29.1914253  -4.8607063  -7.5061293 -19.4292011  -5.1864624
  -8.0763865 -18.6609955  -5.3222480  -6.6829019 -18.9516335  -4.8273239
 -29.9270840   8.6563559 -34.8226357 -30.2924976   7.7858696 -34.5769196
 -28.9415321   8.5165653 -34.7445946  31.8031311 -18.3184681 -31.6641598
  31.5649414 -17.5328484 -31.0914726  31.4739876 -17.9741211 -32.5257568
  23.3503151 -21.2541962  22.1580029  23.8675575 -21.7260914  22.8277493
  22.4208431 -21.5995808  22.2594242  30.2509327 -16.2584591  -3.6204469
  30.2285576 -16.6817970  -4.4585538  29.3931122 -15.7532492  -3.6093504
 -14.2917862  17.8947906 -33.1331749 -14.2826977  17.0317554 -32.6471443
 -14.0631170  17.5920143 -34.0362968 -13.4159460 -51.7323036   0.8242302
 -13.6073484 -52.3771782   1.5308625 -14.3348837 -51.7152557   0.4364643
  -4.2550125 -12.6330709  28.6367760  -4.8265448 -13.3992481  28.4444809
  -3.6554976 -12.5817966  27.9066944 -26.6703415 -17.1428108   0.7869093
 -26.9260197 -16.2613297   1.1925551 -26.8903255 -17.7697544   1.4990275
  28.5903835 -24.9388065   2.9903800  27.8692684 -25.2099342   3.6164615
  28.7373276 -25.7637329   2.5049243 -21.7002163 -37.4155350  -7.8536444
 -21.4777832 -36.4921036  -7.8996668 -22.6728687 -37.4279327  -8.0453262
  33.6186180 -22.4996033   8.9315481  34.0665970 -23.2647934   8.4829454
  32.7069321 -22.6116581   8.6307440  21.2422943   5.3892417 -21.4194908
  20.4456596   4.9184275 -21.7484016  21.8755970   4.6565075 -21.3269501
   7.9009614  -8.2919750 -28.8888092   7.8989487  -8.7620678 -29.7387924
   7.6474695  -7.4016299 -29.0634003  -1.1706005 -13.7263708   9.8710766
  -1.7787030 -13.7490425   9.0754585  -0.6512081 -12.9623432   9.7311831
 -24.7706947   6.6830139   3.7094381 -23.8207016   6.5624866   3.4674339
 -24.7554207   6.0619526   4.4991746 -10.0667124  26.5364742  -0.3214339
 -10.8430815  25.9261379  -0.4140581 -10.4305153  27.2364082   0.2251371
 -41.2572136  -5.9988704 -18.4798241 -42.1489182  -6.3345194 -18.7856731
 -41.2400551  -5.0834608 -18.8732567 -27.8743458 -40.6991806 -16.9208317
 -27.0921059 -41.2485962 -16.5655079 -28.6412411 -41.1193428 -16.4604187
 -13.5540247  33.4075851  22.1061687 -12.8289814  33.9642258  21.7629204
 -13.0740023  32.7039108  22.5170536  29.7556782 -10.4006433  32.8661613
  30.0590305  -9.9879265  32.0024719  30.2180099  -9.8019066  33.4996986
  39.3452110  -1.8560014  22.0588436  39.1620407  -1.6047590  22.9691296
  40.1709404  -1.3804654  21.9060650 -15.9584475 -21.6297417 -30.0549755
 -15.7547932 -21.6269932 -29.0642643 -15.0430012 -21.3387337 -30.3265781
  -4.8853769  40.2056923  20.2667789  -4.0325117  39.9578629  19.7854805
  -4.7385573  40.1136131  21.1610813  30.1084976 -10.7965479  -4.1991506
  29.5823288 -10.7420130  -3.4081695  30.8833504 -11.2765856  -4.0214930
  32.3781548 -22.4238148 -11.3076630  32.3543930 -22.0798149 -12.2058401
  33.3311043 -22.3120079 -11.1373987  -3.3913288   9.6412344  35.4944572
  -3.0736685  10.5578432  35.4488716  -4.1641941   9.6715727  36.0516434
 -36.7650452  12.4250460  -3.5040395 -36.1828804  12.9339647  -2.8854413
 -37.3283424  13.0884981  -3.8899190   8.2672672 -37.3750038  20.7769566
   7.3921428 -37.8183861  21.0246964   8.3316755 -37.6310806  19.8259220
  41.1438828 -14.6429691 -12.0052242  42.0455971 -14.9532814 -12.2243681
  40.5846558 -15.1249313 -12.6170435 -28.1523895  -8.1753597  -8.9485521
 -27.3648109  -8.7677164  -8.8117456 -28.8597889  -8.7573280  -8.7124748
 -12.1681585  15.0564785 -28.6088161 -11.7298231  14.1725826 -28.6806870
 -12.0395250  15.2679567 -27.6603336  -4.8301973   0.9336303  19.1029053
  -4.5780835  -0.0514331  19.0889282  -4.5147214   1.1244242  20.0125828
   7.5323405   8.5122652 -28.2267265   7.6608934   7.6447940 -27.8468704
   7.4185519   8.2529240 -29.1566429 -17.5579777 -49.1068039 -12.8726978
 -16.6278076 -48.8772888 -12.6109753 -17.6616840 -49.9526062 -12.4820747
   6.6884408   7.1025195  46.8253479   7.3537774   7.4736557  46.1670799
   6.3388004   7.9761462  47.2048416 -22.9907188   3.7524612  10.6848507
 -22.8484898   3.0714169   9.9943199 -23.5063591   3.1880939  11.3393288
 -11.4572954 -27.9677753  -2.9221151 -10.5479422 -27.8315372  -3.3336489
 -11.1694412 -27.8307209  -1.9566458  20.7076168 -21.8854561 -12.7652836
  21.1916084 -22.5158749 -13.3583431  19.8130054 -22.2459526 -12.9457159
  34.0260811 -22.6114731  22.3448219  33.9078751 -23.3734856  22.9587135
  34.8677254 -22.8494740  21.9140892 -12.3365126 -33.8875542 -23.5328617
 -12.8508053 -33.1635704 -23.2700424 -11.9915485 -33.7037926 -24.4201336
 -38.1418724  30.8683834  18.9402142 -37.2861862  31.2946320  19.1736279
 -37.8212738  29.9285851  18.8300838  40.6607208  21.3008156  16.1522331
  40.3770981  20.5126362  16.6045494  41.5043335  20.9772778  15.7726221
  -7.2244577  34.4075470  -1.7257959  -6.4951458  35.0588837  -1.9090389
  -7.4341922  34.2576141  -2.6814616 -38.2655373  20.8092117 -17.6609039
 -38.7745171  20.7423134 -18.4607697 -37.4309158  21.2276592 -18.0007763
  14.5054960 -32.1291008  13.4834919  14.6800928 -32.4656639  12.6243458
  13.5665169 -32.2733498  13.5562706 -33.9125633  24.4493141 -30.8257828
 -33.3981743  23.7405891 -30.3482952 -33.4894028  25.2683353 -30.5439014
 -28.8859825   5.9241319  27.8098106 -29.4223900   6.3009200  27.0899372
 -28.9159050   4.9864054  27.6914082   4.8716931  45.3275681 -16.9277668
   5.3513789  44.5280914 -16.7019901   3.9952779  45.2382317 -16.4586372
   8.0052309 -24.3466721 -14.4500561   7.5402575 -25.1972713 -14.4991312
   7.9149804 -23.9945202 -15.3231144   8.5099220  -6.1158252  -5.5404005
   7.7542562  -5.8230014  -6.1427913   9.2027731  -6.1764717  -6.1903963
  40.5609131 -32.7789383   9.1148815  41.2573509 -32.5638428   8.4957237
  40.8669319 -32.1655731   9.8718863  -1.3629429  45.2322655  24.8964977
  -2.3614414  45.3011551  24.8885555  -1.1540982  45.1521759  25.8312855
  -9.6381550  12.7217360  27.8899307 -10.2705669  12.2504988  27.3342228
 -10.1578617  12.9204435  28.6779938 -38.0326080 -33.4575920  -7.5875378
 -37.5287018 -33.7011452  -6.7674222 -37.4716034 -33.9898605  -8.2486124
  -0.3039801 -22.5908203  32.7108612  -1.2340640 -22.2869110  32.8621521
  -0.4869283 -23.3375187  32.1289482 -31.0724220  -5.3277478  15.5914297
 -30.5075493  -4.6252379  15.1501913 -30.7385197  -5.2368760  16.5281601
 -26.2566509   1.9800256 -22.8342781 -26.9015007   2.4250503 -23.3922253
 -26.1748486   1.1380007 -23.3364487  22.4173107  -0.1628197   2.2523150
  22.5434093   0.5553167   1.5411323  22.1353722  -0.8693171   1.6305268
  28.1960297 -23.2182732  18.6555405  27.5396366 -23.9546375  18.6959038
  28.7143364 -23.4419098  19.4246216  38.4155121 -32.6501274 -12.3316879
  38.2165222 -32.1442795 -11.4641466  38.2205353 -31.9022541 -12.9384069
 -11.0092974  -5.9290118  32.6213760 -10.4965715  -5.6157122  33.4098778
 -11.1804028  -5.0659075  32.2075882 -34.8574829 -11.6857891 -23.5058041
 -33.9978218 -11.6976261 -23.8846493 -35.4255409 -11.5757160 -24.3197212
 -19.8555565  27.5514793 -23.8951912 -20.7395725  27.1712341 -23.9631786
 -19.2621021  26.8098679 -23.7839069  28.1644115   2.4244933  21.4253159
  28.4109020   2.1742301  20.5057716  27.3165855   1.9608630  21.5240059
  -8.5914259  -1.8751693  16.2135620  -9.1904850  -2.4086032  15.6275263
  -7.7907319  -1.9460433  15.6980658   3.7616892 -44.2895546   3.2356176
   4.0870500 -44.2704887   2.3134038   2.8093746 -44.1113968   3.0244718
 -21.6142845 -19.6581841 -31.4177608 -21.2129517 -20.2619476 -30.7668190
 -21.7905426 -20.2708340 -32.1158714 -31.4160137  -0.7807332 -28.8459949
 -31.2532139  -1.2100043 -28.0156002 -31.7600231  -1.4932592 -29.3292027
  24.2099819 -10.9272966  13.7015152  24.8574867 -10.2165575  13.4530649
  24.1183605 -10.8141136  14.6449451   8.7449903 -19.2463493 -18.3356075
   8.9747791 -18.8273678 -17.4761047   9.6301737 -19.2033138 -18.7770500
 -25.7383461  -3.3302188   3.1303129 -25.2484016  -3.5748243   3.9839029
 -26.3526554  -2.6585383   3.4748216   5.4424500  12.5993814 -43.7821808
   5.5584874  13.5647593 -43.4726562   4.6014285  12.4586029 -43.3573036
   1.7361336 -25.5642471  17.5413609   1.5499803 -25.6160221  16.6703873
   2.1483922 -26.4319344  17.7271786  13.3817358 -18.1289425  -4.2282271
  14.3382120 -18.4047909  -4.0897021  12.9933100 -18.8564491  -3.5850389
  -5.9874902 -16.6993160  -5.1040430  -5.4996500 -15.8708677  -5.3583798
  -5.3685160 -17.1462307  -4.5038452  24.7968731  13.7045755 -25.0309219
  24.3292332  13.2205420 -24.2638378  25.0012550  12.8750401 -25.5407028
  12.3610067  -1.9901673 -27.8544464  12.4513702  -1.6113302 -28.7626324
  12.3445263  -1.1355622 -27.3660259   3.4183524  22.0795784  24.6693707
   3.3988404  21.0868473  24.7334290   3.1721568  22.1792030  23.7104340
  -1.9165685  20.6435413 -27.5896568  -1.2955734  20.6188107 -28.3310966
  -2.2585115  21.5248222 -27.7036819 -18.9019299  37.4988174  16.8809566
 -18.5380878  37.5564842  17.7527332 -19.7821102  37.9790039  17.0187931
  20.5379505  43.4133682  19.8287716  20.2482414  44.0950737  20.3885040
  21.1920090  42.9574318  20.3553410  10.6472378  14.9001389   6.3821707
  11.4343987  14.2989712   6.3862915  10.2791624  14.7526731   7.2833691
 -42.7874031 -27.7248173 -18.4922295 -41.9334488 -27.6397057 -18.9961987
 -42.4536896 -27.9183369 -17.6044025  -8.2125778  31.6376858 -19.2452126
  -7.4250917  31.8080826 -19.7929363  -8.8499794  32.1969528 -19.6890831
  16.9687462  17.5496712 -19.8295918  16.3201027  17.4491882 -20.5595894
  16.5276394  18.3652382 -19.4348125 -16.8129559  10.3190536 -24.7065468
 -16.9985561  10.6562595 -23.8286209 -16.6785717   9.3432016 -24.5116806
  34.3953133 -16.1250954  17.1308422  35.0448685 -16.8176575  17.0456791
  33.8001595 -16.5634441  17.7984924  20.4804268  -8.9256868 -38.7846642
  20.2150822  -8.1546440 -39.3735886  21.4778709  -8.8652468 -39.0645294
  39.7623825  -1.9257388 -23.2399063  39.9310837  -1.3422742 -24.0301399
  39.7924728  -1.1792849 -22.5815620 -12.6798477 -34.9964752  -4.4157805
 -13.4696493 -34.7990532  -4.9356079 -12.2930994 -34.1244087  -4.1848302
  37.7872620  -4.7123084 -17.2471313  38.1771622  -5.0048027 -18.1298771
  38.5062523  -5.0139499 -16.7055779  31.7513676  25.3429947  19.9147377
  32.5379601  24.8485432  20.2937622  31.6868782  24.8909531  19.0497913
  40.2196960  19.6401215   3.3563132  40.7463760  19.8619595   2.6024363
  39.4846077  20.3234787   3.2310565  18.0413952  20.4879341 -26.6821747
  18.1547184  19.9672489 -25.8147469  17.2326546  20.1557198 -27.0097523
  23.9353199  26.7296906 -12.5731592  24.8431683  26.9491138 -12.8063889
  23.8534698  27.3963490 -11.8049088 -34.3036880 -23.1309414  -5.0692172
 -34.1753387 -24.1044006  -4.8491182 -33.5667839 -23.0762253  -5.6910396
 -18.1622810  -2.0866506  11.9023056 -18.8908901  -1.6050632  11.3839464
 -18.5811157  -2.0582066  12.7865791  10.4372387 -16.2021561  -2.9571576
  11.4122705 -16.0883522  -2.8951633  10.2372885 -15.2898540  -2.5935302
 -11.0436449 -29.2310543  24.3491154 -10.7110348 -28.9694252  25.2626953
 -10.2638521 -29.7318516  24.0637970   9.5117264 -21.4434319 -32.5933189
   9.0466785 -20.6133862 -32.5293770   8.9318638 -21.9917507 -32.0204048
  43.0081406 -20.3658428  11.6735001  42.1214790 -19.8781738  11.5136509
  43.2812996 -20.4014854  10.7112207   5.0846000   7.0203028  36.2427368
   4.8142128   6.1184444  36.1611710   4.9345994   7.2828794  37.1894646
  13.3184853 -42.0998802  24.7113113  13.3869972 -42.1193047  23.6916428
  12.9533758 -41.1810074  24.8002548  15.1973562   7.3704410  30.6436653
  15.0629644   6.5447092  30.1250591  14.2580109   7.5773635  30.8863544
 -20.5001621   0.9803183 -40.3945160 -21.0860367   0.1945308 -40.1047745
 -20.8433990   1.1227648 -41.2915077  23.1527634  10.3193521 -35.6292572
  23.6404266  10.6650581 -34.8078384  22.3672104  10.9714470 -35.4375267
 -33.7232933 -21.4536610   5.8209248 -33.9899979 -21.6418972   4.8816786
 -33.5423317 -22.4024525   6.0742402 -27.9980812  28.4880505  33.5973587
 -27.4660072  29.1915169  33.2711105 -27.4937534  27.7075157  33.3004112
  28.8615303 -22.4308834 -35.7652130  29.3859653 -21.6449051 -35.5267410
  28.5461483 -22.6285686 -34.8021927  17.0105171  -8.0060816  11.6382256
  17.9559612  -8.0357046  11.5024452  16.9387188  -8.5049744  12.4692459
 -22.4860611  25.5507851 -27.2013779 -22.3036957  26.2830009 -26.5366001
 -23.2646675  25.1425819 -26.8102627  11.2129965 -25.7201691  21.1530857
  10.6902227 -25.4538155  20.3331261  11.5260515 -26.6571560  20.7776012
   4.4230585   2.3712411  -5.1361532   4.3659625   2.4005647  -4.1513882
   3.5834005   1.8296212  -5.2579818  -9.2378597  39.5809441  18.4085293
  -8.4741030  40.1268997  18.6701298  -9.5530653  39.4002762  19.3126488
  -1.2691134  44.5347633  29.1322327  -0.6525099  43.8526344  29.2825546
  -0.8001121  44.9661598  28.3744526   8.0546217  47.7235947  -2.2488341
   8.0048618  46.8546028  -2.6969094   8.5332880  47.4712677  -1.4206555
  -1.6450509 -35.1216354  -9.6440535  -2.1667902 -34.9266357 -10.4152107
  -2.1535769 -35.9523544  -9.3225965   6.8074880  19.0450382  -1.6700904
   6.2602587  19.3315659  -0.8935256   7.6633229  18.8994083  -1.2265525
  -6.8489623  20.0653629  -2.9006307  -7.6631246  20.2348099  -2.3792038
  -6.6424971  21.0024395  -3.1624701  16.3538132  20.6069374  -5.9210911
  16.9422817  20.1367989  -6.5785480  15.6282234  20.8337994  -6.6273546
   5.7399735 -38.7245178   1.6279004   5.2195864 -39.4864845   1.8880596
   5.1182394 -38.1513557   1.1958734  -2.7553470 -34.8126335  -6.9770098
  -3.0491891 -35.5414696  -7.6358247  -2.0254562 -34.4251366  -7.4419460
  28.6604443 -31.9208603  14.4493008  27.8913517 -32.5056877  14.3615751
  28.6656113 -31.3527203  13.6646309  38.4098778  25.7061253  -0.4391224
  39.0761147  26.3860149  -0.5666698  37.7563171  26.2079735   0.1409986
  -2.9551935   5.7240605  -4.2680869  -2.6456900   6.1893468  -3.4384198
  -3.5519116   5.0750828  -3.8966835  10.6741438  -2.7984049  49.7536354
  11.5491886  -2.7153480  49.3659897  10.3363848  -1.8876483  49.6763687
 -36.0637321  -1.2719725 -23.3541164 -35.5271988  -0.5142721 -22.9639835
 -35.5317497  -1.3513424 -24.2031422 -23.9074020 -38.6724319 -19.5058270
 -24.6245003 -39.2805252 -19.8895340 -23.1174755 -39.2140503 -19.7975826
 -24.5081654 -11.1364403 -25.8726883 -23.9596748 -10.7265129 -26.5376186
 -23.8639011 -11.6435738 -25.3584003 -36.1795731  19.3081455   4.8404846
 -36.1541252  19.8428574   5.7106547 -36.5339050  20.0051308   4.2900658
  10.7178173  27.2381496 -33.7968559  11.6905508  27.4143677 -33.9168777
  10.6094265  26.8073044 -34.6838951  11.2677679 -36.6889191  18.3435574
  11.5323753 -37.2040291  17.6270924  10.3215303 -37.0424919  18.3543644
 -28.5345497  14.1183605 -23.2155476 -29.2118626  13.5541868 -22.7367172
 -29.0849876  14.9937010 -23.2139339 -14.5676842  17.5093231 -24.4920349
 -14.2737322  18.4337349 -24.4009914 -15.4911203  17.5366344 -24.6637383
  11.0213652  13.2320585  10.9416647  10.1349945  13.0531187  11.3231144
  11.4152584  13.7036295  11.6900368 -31.7576771 -29.6752472 -14.5110493
 -30.9552441 -29.0222931 -14.4055586 -31.4971828 -30.3498650 -13.8372116
  -7.2337728  29.3490105 -29.7016373  -6.8944068  30.1305599 -29.1326313
  -6.6531777  29.4665489 -30.4705944  -7.2714605 -34.0546303  18.7446709
  -7.5512438 -34.4957619  19.5790138  -8.1117363 -34.1314659  18.2317505
 -18.5367851   7.8783736  -0.5552204 -18.0793247   7.9239283   0.3185553
 -19.3626270   8.3431482  -0.3824644 -29.1973534  14.3244543 -27.8159351
 -28.7631264  13.4024563 -27.7820377 -28.7228870  14.7055702 -27.0453224
  43.0115547  19.8971329 -16.8445415  43.2027550  18.9588757 -16.7965221
  43.7644234  20.2312317 -17.3573151   2.1975851  -4.0613699  43.0384636
   1.7986979  -3.9645457  42.1406250   2.8859439  -4.7082024  42.8958282
  24.2995033   9.3777599  27.0663681  23.9233055   9.1288366  26.2024937
  25.1875763   9.6728573  26.7636147  13.4887695 -34.0191803 -36.2864037
  14.3352861 -33.6008720 -36.5338745  13.2331038 -34.4291611 -37.1256943
  37.3080635  30.0839996   1.7475313  37.4052315  31.0145245   2.1470497
  37.5828896  29.5246868   2.4893651   4.4632053 -44.5777206   0.4471187
   5.2383790 -43.9405098   0.4326825   4.6226745 -45.0380821  -0.4131506
 -41.8927040 -18.5874958  12.9786139 -41.9736481 -17.6421642  13.0177822
 -42.3183937 -18.8002434  13.8614511  -2.7196102   9.5765085  10.4807644
  -3.3281598   8.8892517  10.1138000  -3.3365455  10.2404051  10.7362528
  30.8488693 -22.6284599   2.0108678  30.6591167 -23.5157757   1.6109347
  29.9560738 -22.2195148   1.8222840  35.1215172  10.7105131  18.9290962
  34.8651733  10.0547819  19.6121178  34.2031250  11.0047646  18.6845093
  11.2148952 -19.5993996  32.7365074  11.4867802 -18.9440193  33.4244385
  10.4749737 -19.1063118  32.3370323 -28.4010715   1.4932315  35.3531609
 -28.2545395   1.4089499  36.3069725 -29.3539734   1.1582972  35.2749825
 -16.8652191 -20.0037251   5.7640853 -17.2678661 -19.8154087   6.6488976
 -16.5044765 -19.1314449   5.5274429 -15.1099930  15.8094616 -10.0260000
 -15.7472954  15.7110815  -9.2890902 -15.1826296  14.9187860 -10.4298153
  33.2496185  27.7184486  12.8721666  33.7725258  28.5292797  13.1902914
  33.6734161  27.7148476  11.9498405  -1.1407201  26.6255951  20.7260571
  -1.4333709  27.0028553  21.6019783  -0.5055864  25.9684200  21.0437927
  27.7997437 -19.5013313 -10.0232992  26.9679756 -18.9454422  -9.8944540
  28.4527550 -18.7346764  -9.9493561   5.8831997 -26.2171803 -22.8918686
   6.2163820 -25.9544640 -23.7384071   6.5786486 -25.8478546 -22.3021431
   2.3076203  -4.1342087 -35.6070442   2.5876610  -5.0648751 -35.5492973
   1.7383927  -4.2454491 -36.4156380  22.2734909   1.5356565  -8.0344219
  23.1054783   1.8673592  -8.3595848  21.6891346   1.6738594  -8.8370543
  26.0570698  38.6378746  -9.0768213  25.9974461  38.3877144 -10.0319700
  25.4199238  39.4340897  -9.1994934 -34.7585564 -20.7175407 -11.9211664
 -34.9675484 -19.7389183 -11.9429588 -35.4354324 -21.0081730 -12.5867548
   5.8829417  -7.6941805  41.9387131   6.4496732  -7.5518527  41.1253700
   5.0104499  -7.5989375  41.5398598  20.3421192 -17.7724152 -22.8350773
  21.0493927 -17.5326843 -23.4905052  20.2479038 -18.6657028 -22.9392090
 -13.6710234 -28.6149616  28.3574810 -14.6053476 -28.6518288  28.2479572
 -13.2799244 -28.3715286  27.5461025   3.0735946  11.2706814  32.4087334
   3.0842066  11.8660660  33.1883774   2.6608145  11.8086290  31.7315464
  -3.2985411  16.1477127  -4.2198339  -3.7517784  15.4072447  -3.8471785
  -3.8131785  16.9028053  -3.8374984 -12.4656076 -14.9998159 -22.8213310
 -12.6740055 -14.0717201 -23.1499920 -13.3531666 -15.3304119 -22.6012249
 -17.6182461 -17.8933487   9.5799675 -17.1963139 -18.5067539  10.2383747
 -17.9591732 -18.5271530   8.9704494  -2.1424856 -24.5179901  23.0853500
  -3.0646415 -24.2193279  23.2573662  -2.0831022 -25.1954594  23.8358345
 -38.8484154  11.9893436  27.5721092 -39.3444862  12.3811045  26.7871857
 -38.5716095  12.7809143  28.0130138 -24.5351124  15.0011168  14.9273157
 -24.9116192  14.1210108  15.2165747 -23.5989819  14.9005613  15.1875286
  -1.2130755   4.3674006  -1.1012170  -1.5701579   4.1141572  -1.9632906
  -1.6970236   3.7842934  -0.5075536 -34.9049034   9.9225712  37.1231766
 -34.3015327   9.1856909  36.8535690 -34.3589516  10.6873951  36.7971611
  11.8602896   0.8753204 -38.7567711  12.6190271   1.5513446 -38.7853050
  11.3615417   1.1812958 -39.5086136 -31.1028633 -13.2788715 -12.3992004
 -30.6358280 -12.4297791 -12.1204252 -32.0026245 -13.0832920 -12.0330276
   1.6828796 -15.3498011 -45.7302704   2.1991346 -15.0134029 -46.4232521
   2.0999386 -14.9942055 -44.9371338 -41.7360573  12.3452730   1.2172804
 -41.6913261  12.1977491   2.2092986 -41.4345741  13.2482967   1.1583982
 -16.0531139 -14.9250593  39.0358963 -15.8408422 -15.7124653  39.4663239
 -15.7962389 -15.1186514  38.0975533 -13.4402895   6.9649282  14.8721104
 -12.7879705   6.4280539  14.3298120 -14.2302599   6.4128523  14.7736750
  39.4766617 -31.2972393  -6.8447185  39.0554924 -30.3850594  -6.8572073
  38.6299400 -31.7831516  -6.5503001 -20.0282917 -23.5785255   1.5768400
 -19.5063629 -22.7515850   1.6014392 -20.9488449 -23.2269096   1.6657746
  31.5423088  -9.3109112  13.0074749  31.5662880  -9.1712379  11.9939728
  31.1161995 -10.1873178  13.0220680 -33.8880844  15.0151148 -14.3461409
 -34.4563599  14.4549170 -14.9129667 -34.5338020  15.3009901 -13.7153769
 -13.1819696 -19.4185925 -20.7853699 -12.9013062 -18.8159657 -20.0788860
 -14.1251221 -19.3907375 -20.8493862  31.9700508   7.5877252  -4.5038638
  31.6075706   7.3610063  -5.3467083  31.1806374   7.3351173  -3.9115500
  15.2009487   2.4384308  33.9913979  15.8522625   3.0628595  33.5884171
  14.8525629   3.0731850  34.6660767  18.1747551  -3.7833817  23.7965031
  18.1421719  -4.6891265  23.4546165  18.5230598  -3.2669747  23.0529919
 -30.0310001 -18.4853458  -6.0670929 -30.7493839 -17.9687824  -6.5332651
 -29.6530514 -17.8700199  -5.4774990  22.0615673 -11.9979315 -37.7334290
  21.0942440 -12.1520214 -37.5064812  21.9647102 -11.6786966 -38.6203995
  -7.3372984 -25.7443104  23.0265236  -6.7355881 -26.4489975  23.2916031
  -6.9051819 -25.3396969  22.2517548 -15.5278873  10.9923019 -35.9217720
 -14.9773722  11.3954630 -35.2049522 -15.0610170  10.0798826 -35.8938026
  41.6507187  -5.8178425  30.2625179  40.9440002  -5.7533979  30.9291458
  41.8842888  -6.7606802  30.3538818   7.2854347  26.5457611 -16.1503830
   7.3846297  26.7496624 -15.2177963   7.1119542  25.6286125 -16.1574306
  12.4061689  13.9899225  40.8941727  11.5264616  14.3678818  40.5586624
  12.2246561  13.0395718  40.8916855   9.4696407  22.8275433 -14.3944855
   9.1701183  22.0808640 -14.9898405   9.7551022  22.2518406 -13.6211863
  11.5531874  33.2038498  19.6139755  11.8481407  33.3574181  18.7384720
  10.6241894  32.8161163  19.4932022  16.5161533 -19.4945164   1.9202625
  16.3388309 -18.7884102   2.5339925  16.0199986 -20.2324009   2.3017697
 -19.8838425  16.6657238   8.6709900 -20.7249641  16.1017857   8.7182026
 -19.6180115  16.3781528   9.6175928   8.2885151 -20.9325485  44.9459648
   8.0851030 -20.0058613  45.3073235   8.3241701 -21.4584332  45.7296333
  36.2997017  34.5294724 -14.2910948  36.2983170  34.2727242 -13.3530216
  35.7347031  35.3425255 -14.3028479 -29.3730793  22.8992443 -17.2710381
 -29.6609325  22.1299553 -17.7246876 -28.8420391  23.3334351 -18.0023346
 -23.9628448 -42.1701851   2.2066863 -24.7902832 -41.5832443   2.1797135
 -24.2477970 -42.7952194   1.5178988  22.7212830  18.3238449 -16.6381245
  23.5128040  18.3802948 -17.2321930  23.1705570  18.0432472 -15.7860994
 -32.7917328 -14.6177578  -9.7657423 -33.3788300 -14.0515709 -10.3780031
 -33.5428162 -14.8737526  -9.1651726 -42.4524956  31.2555351   4.3377976
 -43.2263260  31.1636429   3.7260025 -42.1895676  30.2739735   4.3539605
  -5.7784057  12.9307394 -13.6928911  -4.7843094  12.8225470 -13.7740726
  -5.9271688  12.2425585 -12.9513035   1.8995771  22.0271454  17.4266739
   0.9985144  22.4783878  17.1416454   2.3779929  22.1806145  16.5731277
   3.0646327  39.3413239  19.4080524   3.8844717  39.1859741  18.8467827
   2.4497871  38.7067146  19.0653286 -32.7477798 -31.4834728  -6.2556148
 -32.3721123 -31.9781590  -5.5483069 -33.3809204 -30.8841438  -5.7651038
  43.3405609  -9.7108564 -12.4595537  43.0053253 -10.3836260 -13.1458273
  44.0238533  -9.2810831 -13.0657768 -39.8462029  10.2636757  17.6636124
 -40.5344734   9.9173975  17.0606384 -40.3211365  10.3804359  18.4821873
  20.9268379  30.1929531   0.5191740  21.4461250  29.5300674   0.9205289
  20.0607414  29.8039627   0.3046757  29.5179367  15.4703760  16.5966721
  28.5870495  15.5048437  16.3243523  29.7752075  16.3878307  16.3143063
  -4.1788988  34.9429207  -6.0554571  -5.0393915  34.9613686  -5.6272912
  -3.6655819  35.2853584  -5.3222494 -14.9810953   6.7050838 -18.7638779
 -15.6774912   7.2721891 -19.1648884 -15.2188587   5.8350077 -18.9387321
 -21.2803307  12.6896629 -32.0126839 -22.1505184  12.9215937 -31.7155361
 -21.0604343  13.4696217 -32.6075134   2.4839339  23.9115620  33.4617043
   2.1508057  24.2129230  32.5994759   1.8226663  24.4039631  33.9966393
  12.6745930  24.4866848 -22.5322170  12.5857258  24.3400364 -21.5681019
  11.8198271  25.0051079 -22.6881104  -7.6599560   1.1610523  -0.3838692
  -7.6204662   1.7497318  -1.1497507  -7.1303802   0.3960589  -0.7032239
  42.3111153  13.5570250 -27.4568329  42.2724304  13.0517273 -26.5998936
  41.5964622  14.2306137 -27.2888985  10.1323156  -1.8596238 -47.1175194
  10.8310127  -1.3216535 -46.5925484   9.5913582  -2.1107531 -46.3468399
 -38.5671082   4.5498023  34.9143028 -39.4035492   4.8864865  34.4743919
 -37.9346886   5.2305398  34.5966225 -12.0889273   1.5702637 -26.7775974
 -11.7412558   2.4563465 -26.7961864 -13.0699625   1.6803292 -26.7732887
 -20.9550533  32.2921448   6.8795638 -20.0289307  32.6003532   6.6767545
 -21.3855057  32.6039925   6.0507431  -3.5011508  22.7881432 -28.8272018
  -3.9567890  23.5386639 -29.2550659  -2.8262787  22.6430149 -29.5213547
   5.8149567 -42.3769493 -31.7890949   5.4257679 -41.5066757 -31.6227474
   5.3361330 -42.6543770 -32.5321465   8.7473211 -31.1196976  -5.6300139
   8.2712145 -30.3981857  -6.0783076   9.2154255 -30.5358963  -4.8759346
   7.9811611 -19.9694691  -4.3081679   8.8967934 -20.1774673  -4.0951514
   7.4989991 -20.5777874  -3.6698718 -15.7647371  20.3109455  45.3050537
 -16.0319309  20.8590088  44.5205688 -15.3640394  19.5150928  44.9381447
  23.0028934  14.0937223 -12.4274225  22.4792023  13.3440008 -12.8470583
  23.2128048  14.5711555 -13.2820721  22.4907703 -26.3257523 -14.9862738
  21.9220676 -26.4000854 -15.7241020  22.0478325 -27.0047646 -14.4335518
 -10.0894184   7.2192421   8.4726925 -10.7388954   6.4451218   8.4805813
 -10.3394537   7.6246572   7.6442924  11.7365637  47.1779633  -2.6163616
  12.6540613  46.8923874  -2.2922823  11.5951490  47.7980156  -1.9072163
  10.3766203  11.6643553   2.6578047  11.0117941  10.9721289   2.4202566
   9.8199558  11.2041111   3.3160291   9.4926691  37.4562225   9.0115166
   9.3056469  36.4998703   9.0459290   8.6947737  37.8250237   9.5047550
 -20.1537762 -31.2559853  23.1068287 -20.8093281 -31.9062710  23.2403145
 -19.6202469 -31.5970383  22.3259220  40.3460007  23.5161648  -0.8060837
  40.7244759  24.1797657  -1.4041506  39.5657692  23.9616985  -0.4055811
  11.4136324 -29.8355579 -38.1160774  10.9743891 -29.0862103 -38.5801048
  12.2877064 -29.8729744 -38.5378304  16.8648186 -37.6505928  -1.3361554
  16.2883301 -38.3279381  -0.8944793  16.2900753 -37.5394020  -2.1445529
  38.4963608  17.2477684 -14.9972858  38.2213707  16.3044033 -15.0552483
  38.2541351  17.6146774 -15.8388710  26.2493515  10.3586149  -9.7397213
  27.2065239  10.0695305  -9.7721548  26.0802612  10.4569941 -10.6889553
  -3.4189005  -6.5965261  41.6173859  -2.8112423  -5.9197273  41.9945831
  -3.3189080  -7.2575512  42.3553391   2.2807751 -29.8463135 -27.6502972
   1.9842829 -30.7332478 -27.5021114   2.0236173 -29.4132137 -26.8211937
 -16.2776890  -3.7123322 -39.8347855 -15.7163687  -4.4196491 -40.1952286
 -16.9153900  -3.5875347 -40.5612526 -41.7850723   8.9100428  32.3576355
 -40.9134750   9.2719183  32.6560173 -41.8122635   9.3400745  31.4225330
 -11.0497532   7.0085917  20.8349934 -10.2693043   7.2250562  20.2053852
 -10.5316811   6.5470281  21.5552883   6.6084065  11.5700541   4.2221403
   7.4995775  11.2045593   4.4142776   6.5157037  11.6159754   3.2899117
  22.4431229 -11.3480482  23.9446430  22.9475861 -12.1133251  24.1009998
  22.3157883 -10.9570370  24.8307076  31.5144215  -5.6379099 -30.2781258
  32.2959824  -6.2157545 -30.0318108  30.8283825  -6.2638507 -29.9551182
 -21.8656025  35.3109207  13.8142242 -22.0309715  34.3677368  13.7010708
 -22.3338718  35.4561920  14.6590967  10.9087915 -29.9753990  14.9829264
  10.4441767 -30.5643139  15.5971899  11.1591854 -30.6483936  14.3448763
 -39.5378952  -8.1374369  -7.6882052 -39.2087402  -7.2257061  -7.7534704
 -38.7207680  -8.5733404  -7.3276329  -9.0837984   7.1638908 -51.8112144
  -9.4774122   7.4396749 -50.9641647  -8.1557198   7.4880447 -51.6977081
   9.3736477  -1.8384905 -16.1960125   9.2877378  -1.9412056 -15.2438002
   9.5663366  -0.9137036 -16.3421993   6.5049195  -7.9898872  -6.9363852
   6.5845199  -8.3484869  -7.9079194   7.4706302  -7.7422209  -6.7859426
  -1.9722755  25.0032310  -0.9110066  -1.5215913  25.8016834  -1.3341928
  -2.5071781  25.4610672  -0.2364244  16.9713326 -34.0414581  21.4704266
  17.1087570 -34.9348564  21.9255409  16.1558132 -33.7718506  21.9244328
 -36.6577568  25.2428665   4.6052938 -36.6211319  25.7397423   5.3774009
 -36.2893944  25.8510494   3.8911874  25.7246304  32.0187111 -10.3844872
  26.6242161  31.8754940 -10.0099764  25.7911377  32.9674568 -10.5990257
 -24.1571102  12.8537941   7.2897305 -24.4246044  13.2855043   6.4236650
 -24.2480106  11.9102440   6.8825588 -22.1122723   5.2264700  22.7469082
 -22.7814140   5.3980775  22.0968647 -22.0997715   6.0620298  23.2801456
  12.7081842 -24.4518490  17.1034412  12.6413965 -25.3897114  17.2918491
  11.7952528 -24.1656895  17.2304821 -35.2348442   3.5749733 -32.3412552
 -35.2539482   2.6829343 -31.8805370 -34.3202095   3.7876010 -32.2856522
  14.5691919 -10.9386044  45.6436195  14.6689644 -11.6701317  46.2920113
  13.9530172 -10.3707342  46.1656609  31.9920521  12.6670961   1.3180182
  31.8563919  13.5640364   1.5774342  31.5642090  12.6973696   0.4283002
  -5.7658944 -15.4486084   2.4979556  -5.4349895 -16.1797276   3.0976841
  -4.9990468 -15.2781382   2.0017056  42.0601654 -15.5044060 -23.5994892
  42.5437508 -16.1004143 -24.1936836  42.1245537 -14.6254120 -23.9742107
  39.6177406 -27.1228085   3.1337249  40.5618820 -27.3542404   3.0191786
  39.5606155 -26.9101505   4.0792108  43.0818062   3.7950649 -29.9119015
  43.7506409   4.5667219 -29.9212799  43.3348198   3.3268461 -29.0880547
  24.0547733  44.2168198  12.8245783  23.3724060  43.5211830  12.8746471
  23.6321487  44.8096962  12.1647635 -23.3914242  26.9753685 -29.4202633
 -23.5782738  26.1848049 -30.0375500 -22.7986431  26.5132866 -28.7501583
 -20.2381744 -23.7612839 -21.7695122 -20.4323845 -23.2587833 -22.5740604
 -20.8970451 -24.4501953 -21.8493576  34.2287903 -32.9773521  21.2073421
  34.0622368 -32.1596222  21.5704384  34.3992844 -32.6448174  20.2036285
 -12.8769979  16.9507980  22.8495770 -12.4839144  16.2443943  23.3902264
 -12.1588516  17.5031815  22.5601425  20.3130493  29.3652534  -4.0474195
  20.2115288  30.3159809  -3.7578449  20.5288792  28.9501400  -3.2288046
   1.1463856  -3.9475570  -0.1847831   1.6913071  -3.9663787   0.6274518
   0.7746257  -4.8261976  -0.2554759   3.9445219  30.9081192  23.6889114
   3.4029555  31.2930126  22.9825993   3.4426086  31.0874596  24.4546986
 -29.7560768  18.8804169  21.5527020 -29.1272278  18.1485729  21.6430511
 -29.2766933  19.3887959  20.8098431  15.3577528  -8.2862663 -21.8025894
  16.0891342  -8.8962984 -22.2371426  15.2661963  -7.6351810 -22.4797573
  -0.4291853  20.4921169  11.1616697   0.2681704  20.4973679  11.8991718
  -0.9478736  21.2057228  11.5644398  12.7249527  -0.9493809 -36.6753159
  12.4637613  -0.4483885 -37.4693451  12.4261026  -0.2990517 -35.9516907
  33.4596367  21.8544407 -11.9168634  33.4965858  22.2448196 -12.7996550
  33.0752258  22.4834251 -11.3184748 -16.0841427  19.9896049 -35.4174957
 -15.8832865  20.5819454 -36.2264900 -15.3480701  19.3555050 -35.5764198
  -7.6169658 -15.8752737  19.4484940  -8.5433216 -15.5120716  19.3377934
  -7.5159674 -15.8540049  20.4301262  20.1541958 -19.6946297  19.6851902
  19.7759914 -20.5550041  19.9626293  20.7694683 -19.9733944  19.0189991
  -7.8280759  13.7076740  15.2666101  -7.0102997  13.2642088  15.5063944
  -7.8006153  13.5791702  14.2692032 -39.0337143  16.2327271  15.0213575
 -39.5356712  17.0099735  15.2936478 -38.0993347  16.5683174  15.1102142
  20.9525604  -2.4259772  37.1454163  21.9166908  -2.3312652  37.1726952
  20.7582397  -2.5095091  38.1257553  35.2187881 -16.1171341   8.1867952
  34.3259735 -15.7627354   8.2351313  35.0158463 -17.0447445   8.4321842
 -28.1560898   1.9644020 -14.3244629 -27.7120838   2.4470770 -15.0224791
 -27.5646000   1.1856756 -14.1927023 -20.3929348   8.9168501   5.9426260
 -20.3794861   9.8247318   5.6102724 -19.5643959   9.0070963   6.4815931
  15.0410166 -20.8451328 -21.0955238  14.6107340 -20.1971970 -21.7158470
  15.5303469 -21.3424988 -21.7235203 -33.9284859 -12.0274458  11.2531395
 -33.0546227 -11.7902508  11.6057062 -34.4528313 -11.3152714  11.7558422
  -2.4798822   3.9144616  39.4107323  -2.0565939   4.7886024  39.6128044
  -1.8390313   3.3075204  39.7794189  -3.3763392  -7.2788815 -39.7685280
  -3.3173790  -7.4990664 -38.8092194  -3.2150183  -6.3091331 -39.7002220
  17.1534786 -25.7935791 -23.9381199  16.4787102 -26.1785564 -24.5542336
  17.1791306 -24.8754234 -24.2719593 -22.8142624 -42.0973434  12.4340563
 -23.0562286 -42.7653961  11.7589197 -22.3712063 -42.6668510  13.0806828
 -21.3713589 -10.0488977 -11.9943962 -21.1138649  -9.6302052 -11.1702309
 -20.6452255 -10.7778387 -12.0110769  34.6665115  -1.3377932  24.1053963
  34.6535988  -1.1927822  23.1832104  35.5965424  -1.0062331  24.3001080
  -6.0834584  -1.6964792 -10.0865068  -5.6644187  -2.0305915  -9.2645817
  -5.3035069  -1.5129354 -10.6525478   6.2586265  -0.4510357 -15.3457317
   6.9433312   0.0227933 -15.7744417   6.4301476  -0.3794465 -14.3863039
  -7.3396635  -3.1719472  -6.3445549  -7.2037873  -4.1582060  -6.3226318
  -7.3016486  -3.0008488  -5.3858719   6.4208355  34.7000961  31.0984669
   5.7381935  34.7505798  31.7510128   7.1636462  35.0257416  31.6329441
 -42.6010857  -6.9058294  11.8602180 -42.1861610  -7.6633677  12.3827295
 -42.3290367  -6.1460190  12.4750929 -39.3938713   6.3972621  -7.1745520
 -39.7022858   6.3571744  -6.2596736 -38.9961433   7.3475718  -7.2260275
  43.2434998  20.6715069  15.7518177  43.6684380  19.8232117  15.4157839
  43.2464943  20.4229755  16.7289810 -14.8930569  31.4345322 -27.9835815
 -14.0970182  32.0002289 -28.2682915 -14.5226574  30.5804367 -28.2465992
  11.1368551   5.3985214  -6.6738405  10.5042400   4.6289620  -6.7658062
  11.1675310   5.6307917  -7.6728487   4.2795982  12.1741123  29.8806248
   4.6454420  12.4628639  29.0405617   3.4007208  11.8993282  29.5049725
  23.8376293 -16.3805714  27.9922104  23.5691872 -17.3146496  27.7636681
  23.5138588 -16.3435307  28.9301338  33.9497910 -10.4996986  21.5365639
  34.5615044 -10.6217041  22.2420406  33.0350800 -10.6413498  21.9145908
 -12.4767351 -15.9135094   2.8219135 -12.4146662 -15.2625990   2.0601492
 -11.8853703 -15.4157562   3.4559560  24.2815800  44.7612839  18.3190041
  24.4317665  45.1975365  17.4524994  23.3865108  44.3754425  18.1691246
  -3.5726531  23.0574226  -2.1209390  -4.1974397  23.2586784  -1.3843834
  -2.8682292  23.7579689  -2.0105510   8.1166229   5.6649451  38.6247063
   7.8510966   4.9717922  39.2267189   7.7824106   6.4872155  39.0465927
 -15.8168707  33.1197205 -10.2152338 -16.5806904  33.6801872 -10.0839262
 -15.3504457  33.1917839  -9.3546743 -21.7859764 -37.0081024   7.8435669
 -22.7095737 -36.7296104   8.0328016 -21.4922829 -37.2297897   8.7314053
  -0.5069445  -8.5659809  12.9680576  -0.7558203  -9.1851587  13.6749277
   0.4526631  -8.4557314  13.0449657 -44.2623215   4.1417747 -20.1162281
 -43.5512886   3.7225602 -19.5580063 -45.0609474   3.7810771 -19.7638550
  20.8171043  15.2273912  11.8086910  21.7704678  15.4563932  11.6479425
  20.9592972  14.4146051  12.3836346  -3.8299875   6.5146608  38.5326729
  -3.3831851   5.7630601  38.9223137  -3.1715138   7.2118659  38.7623215
 -13.1893473  24.4916229 -42.0104141 -13.2586432  23.6984768 -42.5485153
 -14.0449572  24.9400501 -42.1348267   9.2405138  28.1537781  32.1881714
   8.4409618  28.5967026  32.4981880   8.9085598  27.3914928  31.6220398
  16.1575031 -22.5736580  22.5078907  16.7186546 -21.7724075  22.3921051
  15.2890234 -22.1509418  22.8146877  11.6157608 -18.1726036  23.0501213
  11.4249811 -18.1853752  24.0265026  11.3489828 -19.1119232  22.8341827
   6.5171523  -0.5651790  40.0067215   6.5521612  -0.8095893  40.9233742
   5.6287632  -0.9689986  39.7585449 -20.4453831  14.9853601   0.2811193
 -20.3337231  14.0664072   0.0048092 -21.3919048  15.0533609   0.4446983
  35.8166809  -6.6618304 -25.2644978  36.2005768  -6.3806167 -26.1103745
  36.0901413  -7.6048331 -25.2555714  39.7699356   5.5835576  31.4224091
  39.2243500   6.2341976  31.9220161  39.3196220   5.6783109  30.5449009
   2.1055264  40.3871422 -23.3260593   1.9586124  41.2271118 -23.7554073
   3.0404663  40.1656914 -23.5043888  13.7510443 -21.7168446  23.4345284
  13.2671242 -22.5082207  23.1588650  13.0474291 -21.3315849  24.0364189
  -5.1046605 -27.6935005  20.3712044  -4.4835958 -28.3547783  20.8278408
  -4.7910299 -27.7439575  19.4585400   3.4635046  42.2356415 -19.7223091
   2.8250444  41.5513191 -19.7905178   3.8755691  42.2630806 -20.6577187
  18.6525421  -3.4937167  15.0217409  18.8790131  -2.8515077  14.3407240
  19.2588940  -4.2796774  14.7802715  -3.0077710 -19.7299824 -21.9300327
  -2.0995390 -19.6464291 -21.6006241  -3.0536611 -18.8137226 -22.3445263
  22.1219006  32.2569733 -19.2685356  21.3209610  32.8223610 -19.4032116
  21.7155132  31.3719616 -19.5056133  11.9999123 -22.3636208  33.6567993
  11.2440252 -22.9683475  33.4274559  11.5618305 -21.5099144  33.6942062
 -15.8285046   4.3454709  16.7267151 -15.0697746   4.0945745  17.3219700
 -15.3022137   4.4286027  15.8981676 -32.6502914 -10.1086187 -17.9804840
 -32.8660507  -9.5462875 -18.7944736 -33.5838356 -10.3866768 -17.7924786
  -6.7738123  23.7360344 -31.6552410  -6.9158907  23.0440159 -31.0719185
  -6.3166656  23.2625809 -32.4349976 -34.1423683   1.8482320  -3.4906306
 -34.6230125   2.3785038  -2.7794318 -34.1036415   2.5554214  -4.1891632
 -11.8272352  20.0653248  -5.4082990 -12.1103630  20.0774498  -6.3094549
 -11.6614923  19.0730534  -5.2992272  11.5496216   9.5104122 -23.3945427
  11.8914156   8.7225246 -23.9210777  10.9099894   9.0156097 -22.8631744
  -7.2926764 -31.6154671 -28.9813538  -7.9691839 -31.3172302 -29.6100063
  -7.6910725 -32.5391846 -28.8282986 -30.6539230   4.9340076  18.6244640
 -30.0840130   4.0986042  18.6038570 -30.2302933   5.3856888  19.3756104
 -30.0051899 -33.3183403  -6.3009648 -30.6523075 -33.3524628  -7.0034838
 -30.5096321 -33.3259773  -5.5114036  17.4722862 -10.2864618  -6.0234838
  18.2562160 -10.0305872  -5.4787612  17.1951332 -11.1446514  -5.5067697
  10.3227425  26.4071465  33.9967270  10.1350670  27.1413708  33.4096909
   9.9833670  26.6899204  34.8552132  -3.1109819 -37.1203461  -8.3296165
  -3.8624196 -37.6433830  -8.6976166  -2.6137414 -37.8365250  -7.9054937
  -7.0260167  33.5352669 -17.1909924  -6.3054471  33.7818642 -16.5517426
  -6.8826408  32.5607567 -17.0799923 -22.4687443  19.4460735   7.7392983
 -22.5473366  20.3277493   7.2745852 -22.8487873  19.7076874   8.6188812
 -10.4858494  18.1535683   1.6831150 -10.7474527  18.9013748   1.0940931
 -11.3747158  17.8045845   1.8969821  28.0107937 -10.8236208  20.7755966
  28.9196625 -11.0850525  20.4513988  28.2953568  -9.9953842  21.2880325
 -35.7114487  -7.1074247  34.8112488 -35.0520248  -6.7060652  35.4011269
 -35.5635338  -8.0564241  34.9018822 -18.6340885  11.5782213 -11.6115522
 -18.0438442  12.1731129 -11.1912003 -19.3936481  12.2005234 -11.7978573
 -23.9226952 -30.8711967  -0.7348375 -22.9294147 -30.7609787  -0.7537652
 -24.1753597 -30.0166550  -0.3075723 -25.7443981 -12.3896856  10.5842915
 -24.7607403 -12.3631754  10.5575171 -25.8971672 -12.8293171   9.6593008
  10.3894415  -9.9047823 -28.2172832  10.6739931  -8.9775505 -28.1009369
  10.6232119 -10.0459299 -29.1124115   5.5109606  27.9643497 -27.9181137
   5.2694488  27.2993031 -27.2373123   6.1597066  27.4006138 -28.4122238
  21.4184322 -18.5343018  44.6124496  20.6462021 -18.3830605  44.0384712
  22.1354942 -18.1639652  43.9992218 -40.2966499   8.5431871 -10.1000557
 -41.2081032   8.3727818 -10.4275522 -39.8666611   7.7319450 -10.5953903
  20.7854252   6.6272898 -19.0288143  21.6375275   6.1401339 -18.8839588
  20.6116657   6.3968730 -19.9765568 -32.8186722 -19.9051113 -16.1247673
 -32.7379532 -19.3936272 -15.3146381 -33.7368546 -19.7951851 -16.3396683
  18.8695717 -27.0629539  30.6940022  19.5755653 -27.4175377  30.0704365
  18.2991657 -26.5936718  30.0215073  43.1296120   5.3441410  18.7699986
  43.9335938   5.7887053  18.3525810  43.5252342   4.5178137  19.0509224
  -3.6217794   4.0837593   9.0703917  -4.2705207   4.3965364   9.6608219
  -3.2801998   3.2293291   9.3854046  35.3463860 -31.1467781 -13.7293282
  35.7236824 -31.6951828 -14.4582386  36.1348076 -30.6954632 -13.3987160
 -41.9945946   3.3563459  27.9174061 -41.2469673   3.8299758  28.2788105
 -41.5757370   2.5678160  27.5395412  27.9832287  12.5091705  14.1563597
  28.9675217  12.4847679  14.3686609  27.7543945  11.6069279  14.5025644
 -13.7442741   2.0621626  15.5464802 -13.5272217   2.9176462  15.1522961
 -14.1864471   1.6042138  14.8300066 -15.7574644 -30.3628883  19.7033253
 -16.3494053 -30.4889069  18.9178200 -15.9519892 -29.4382782  19.8424683
  28.7535000  -5.6363978  23.9774113  28.8514137  -5.8251758  24.9494915
  29.7271900  -5.5594282  23.7010860  42.0648880  -7.5039225 -10.5827208
  42.5829239  -8.0311956 -11.2555609  41.2504845  -8.0959835 -10.5488005
  24.6032925  34.8147316   9.4445934  24.7918968  33.8470802   9.2994289
  24.6685734  34.8702507  10.4110289 -27.0751209  12.9766922  22.5138454
 -26.8813190  12.5735350  23.4140873 -27.9901962  12.6673784  22.3604240
  36.8540306 -21.7393112   1.4876899  36.3675957 -22.2896442   2.1015041
  37.5861320 -22.3152542   1.1905017  19.8931446 -33.0954208  20.3372250
  19.5643425 -32.9187546  21.2330799  18.9856758 -33.0673409  19.8479748
   4.9848542 -22.8316536 -12.3756189   4.6755424 -23.6733856 -12.7595968
   4.3710685 -22.1958122 -12.6854239  21.4948139   1.6335479  16.1433563
  21.8447456   2.4369433  16.6012535  21.3819904   1.0220468  16.9341221
   2.5219135  16.6819496   0.9793581   2.9765399  16.1692410   0.2888488
   2.9631588  17.5621910   0.8592313  -4.3915315   6.8205204  24.5478859
  -3.6040790   6.4324026  24.9228649  -4.4211073   7.6539779  25.1037521
   2.9332740  33.6053352 -15.1164665   3.5238733  33.1376495 -15.6799822
   2.5871084  34.2811089 -15.7636719  20.9139252  29.8214130 -19.5565796
  20.3106537  29.7311440 -20.3133430  20.3523369  29.5787754 -18.8153019
  12.9413042 -17.6434364 -18.1259441  12.5527534 -18.0412731 -17.3783321
  13.9188595 -17.7615738 -17.8800907  13.7630939 -19.5264759  10.2300215
  13.3885994 -19.2595997  11.1393051  14.1382551 -20.4017429  10.4771566
   9.4438610 -15.7267799 -30.1943569   9.0566187 -16.6374550 -30.2888069
   9.4501629 -15.3840055 -31.0542965  -0.6299505  27.0802059  36.3128662
  -0.9593603  27.0988293  37.1931877  -1.4044617  27.1316128  35.7462006
   8.5528908  30.0496540   5.6915755   8.7767754  29.7486286   4.8091908
   9.2136335  29.4912491   6.2557249 -15.7594137 -17.1009140 -32.4365807
 -16.6730537 -17.3237514 -32.1807785 -15.3262234 -17.9836769 -32.2143517
 -19.9892731 -27.0375061 -24.7675419 -19.4605465 -27.5145664 -25.4439926
 -20.0658283 -27.7752686 -24.1016731   8.4975624  -2.1567841 -34.4402237
   8.5974112  -2.6321309 -35.2071991   8.1651430  -1.2840469 -34.7987175
   4.9829016   1.5468160 -28.4023438   5.5704002   2.3420660 -28.7265949
   5.0707235   1.6680547 -27.4475250   1.4075762   0.3162144  -2.0021217
   0.9223050  -0.3889963  -1.5168905   0.6845974   0.7819834  -2.4333107
 -33.4462204  25.5250759  -2.1605504 -34.3010635  26.0476017  -2.2580812
 -33.9092484  24.6289139  -1.9074051  14.0762472  10.5345383 -19.0182419
  13.3098478  10.4779034 -19.5970936  14.7780275  10.7063656 -19.7528877
 -24.2934437  22.3404484 -22.1961555 -23.8662090  21.9428101 -22.9593830
 -25.0217247  21.7134819 -22.0878830  -1.4968584  10.9087629  27.9777622
  -0.8448194  11.0080490  27.2703857  -1.8689488  11.8297729  27.9281330
  -6.2011399  31.0440331 -32.0970535  -5.3885098  31.4094620 -31.6281013
  -6.7388687  31.8163509 -32.2232246  12.7448769 -35.1698494  19.9578552
  12.1874723 -35.7841225  19.3541870  13.0717363 -35.8763847  20.5507774
 -23.7085838 -14.0134306  -8.9898214 -23.7578430 -13.0500717  -8.8263016
 -23.0272999 -14.0376072  -9.7069817 -36.7921715  -3.8779736  17.4486256
 -36.5930061  -3.8650420  18.3760853 -35.9300461  -3.5290480  17.0566730
 -32.2738914  22.4231529 -11.0517492 -31.3660164  22.3209095 -11.0682030
 -32.4638214  22.6433144 -12.0038013 -23.8584251 -10.0630913 -19.8646488
 -23.0027370 -10.3636513 -19.6136379 -24.2595253 -10.0495968 -18.9820919
 -13.0803690  -9.6225214  39.6161270 -12.3084068  -9.1632662  39.4011459
 -12.7996788 -10.1278992  40.3992348 -35.0063248  -1.8049338  11.7797318
 -34.0158463  -1.8931044  11.6592731 -35.1206436  -1.0981542  11.0251770
 -27.4256821  -7.8498430  20.8860703 -27.4914742  -7.2161674  21.6436710
 -26.4601803  -7.8194060  20.7276859 -23.6162415 -20.6389103  15.8092527
 -24.4233971 -20.2167549  16.2535152 -23.9273949 -21.6290455  15.8581219
 -42.9294891 -12.9754677 -12.6454182 -42.2743073 -12.5766983 -13.2448473
 -43.4760132 -13.4250126 -13.3426800  -3.5932982  -1.3039422 -16.0176239
  -3.4189374  -1.2520349 -17.0049515  -3.5866816  -2.2757292 -15.9205647
  17.6122494   5.1035328  25.0023975  16.7362022   4.6805315  24.9560947
  17.6533661   5.3254442  25.9179955  -7.4579930  -2.1443942   4.8482962
  -6.7966433  -1.3822412   4.9238114  -7.6037111  -2.0647991   3.9182751
  -7.1063256  22.2136574 -15.1573906  -7.7220736  22.0266800 -15.8725958
  -7.2602530  21.4417934 -14.5533333  32.0794487 -19.3188114   0.9349758
  31.1582050 -19.5617332   1.2715852  32.5559425 -19.3634720   1.7745568
  34.6038094 -16.9550648  32.0107460  34.4295273 -16.6173153  32.9309883
  34.2593079 -17.8672562  32.0650787  22.9612617 -28.2207050  20.8654060
  22.6067181 -28.9662724  21.4302635  22.1709709 -27.7795811  20.5994396
 -13.5887308  -0.5867028  22.2025948 -13.3126040  -1.1086936  22.9618130
 -13.5424929   0.2636311  22.5836124 -24.3270187   8.0518045 -11.6510630
 -24.7883987   8.5078850 -12.4249687 -23.6132107   7.6558404 -12.2401409
 -24.5615978 -40.2044678 -15.8118820 -24.8900051 -41.1154480 -15.9294214
 -23.8474045 -40.2687874 -16.5081482  -6.6868391  14.4702339  42.1861725
  -6.5184407  14.1755085  41.2841339  -7.4177632  13.8956509  42.4930725
  -4.1086464 -46.1545067  23.0857849  -4.1812468 -45.4835091  22.3805771
  -4.7797341 -45.8448181  23.7421837  13.1551456 -23.1016674  -5.8493109
  13.1447744 -22.2406788  -6.3473597  13.2703571 -23.7611675  -6.5565929
 -15.2875147 -17.9824257 -19.3994102 -14.7682438 -17.8225136 -18.6139717
 -16.1620331 -17.5946426 -19.0562305   5.9595819  -5.3929429  -2.2017376
   6.2424397  -5.1152306  -1.3293991   6.7417908  -6.0254688  -2.4149277
 -10.5597668  -7.5943828 -25.0043945 -11.0372267  -8.0027256 -25.7634029
  -9.6715326  -7.5362501 -25.3645248   9.9016094  -8.4832125  53.5135345
  10.2962351  -7.7505450  54.1066742   9.5061178  -7.9668384  52.7940903
 -27.0667591  25.5224857 -26.6047649 -27.2838497  24.8093491 -27.2827148
 -27.7670593  26.1595993 -26.8216534 -20.2478905  -8.4230795  -7.7391777
 -20.7522659  -9.0990105  -7.3204994 -19.7945805  -8.9583292  -8.4501200
 -35.9330177  20.0301418 -27.7075424 -36.7807121  20.1886768 -27.3304825
 -35.9526978  19.0990963 -27.9613609   6.7729573  -4.7960658  28.3588276
   7.1740923  -4.3743663  29.1020603   7.4430919  -5.5096211  28.1472855
 -41.0311737   3.3493471  19.6478386 -41.4684296   4.1393375  19.9443951
 -40.1331367   3.4690616  19.8021679  33.1333694 -11.8005619  19.3172207
  33.7982635 -12.4745960  18.9202366  33.7119827 -11.4992952  20.0475845
 -30.8111553  33.1795235  26.4518242 -31.0688877  34.0854912  26.1541481
 -31.6451435  32.9639664  26.9800949  -1.6326847 -40.8591270  11.2999535
  -1.8246545 -40.7064857  12.2520294  -1.8348007 -41.8316574  11.2499857
 -18.9002399  27.4053497  23.4454269 -18.3175068  27.1934128  24.1969948
 -18.8174686  26.6212654  22.9093838  -5.6122389  10.4050808  30.4149075
  -5.0362353  11.1774302  30.3841782  -6.3710051  10.6246634  29.8479900
  -7.6491041 -32.1459503  28.1862373  -7.3706207 -31.9850941  29.0702877
  -8.3957958 -31.5479145  28.0210876 -12.0943394 -22.1225262 -16.8732128
 -11.7488737 -22.2773609 -17.7567577 -12.9104548 -22.7112389 -16.9471874
  -4.9494276  19.2717419  17.3885708  -5.4924102  19.6062088  18.1459446
  -4.0728259  19.2122993  17.9266300  34.7505913 -24.4945869 -20.9940548
  34.7245331 -25.0216446 -21.8080940  35.0497894 -23.6487350 -21.3995209
  28.3468227   3.0133610 -20.8844872  28.3391094   2.5908360 -21.7634315
  27.3636074   2.8995230 -20.6798248  15.7040014  45.9860992  -9.9976807
  16.6900558  45.9378281 -10.2193165  15.7297964  45.6235123  -9.1221704
  14.9618979  29.4031658  30.2913055  14.5377073  30.1013126  30.7818718
  15.6860514  29.9085350  29.8320637  27.5995312 -11.0010509 -13.4235153
  26.6480789 -10.7226524 -13.2450218  27.5035381 -11.8246441 -12.8611822
  10.0613441  -3.4246120  46.9777222   9.0866823  -3.3448708  46.9128532
  10.2013168  -3.2636340  47.9645233   9.9265814  24.6402893  20.4941750
   9.3064823  25.4217510  20.5238953   9.5259495  24.1193676  21.1934719
   1.1567736   9.7972660   8.7105312   0.6603441   9.0511713   9.1278162
   1.9301301   9.4203081   8.3527336 -41.5416489 -25.3288155  10.2578173
 -41.3974762 -25.8108807  11.0761051 -42.3822174 -25.7287807   9.9595613
  -3.3747663 -15.9175739  13.6260090  -2.6168907 -15.7488852  14.2681856
  -2.8719172 -15.9697304  12.7862148  22.4346066  -0.3568777 -29.1949654
  22.2490578   0.2762758 -28.4561386  21.9332104  -0.0819634 -29.9065990
  39.7009697 -23.7418613 -20.8531456  39.3339653 -22.8371925 -20.9426250
  40.6480904 -23.4897003 -20.8993797 -32.4045792 -14.4221506 -29.6338158
 -32.6034698 -13.5742607 -30.1947289 -32.4496765 -15.0581980 -30.3518543
   0.5529546  -7.3593616 -33.0797157  -0.2301387  -7.1190181 -32.5718002
   0.1406552  -7.3686290 -33.9953232 -25.8484268 -20.7451439   4.0000386
 -26.6672554 -20.4532166   4.5344725 -25.4157734 -19.8980026   3.9670663
 -26.1902504  18.8309612   9.5637178 -26.1501484  18.0245209   8.9472513
 -27.0599804  18.7039013   9.9419527 -37.1626740   2.3939590 -39.1367950
 -37.8407745   1.9942153 -38.4944382 -36.8560257   1.6575596 -39.6295319
  21.9278641 -24.8592434  -9.4963388  22.3794308 -25.7092667  -9.2786493
  21.2657452 -24.8737164  -8.7663422 -12.8197222  -4.8825569  -5.1336832
 -13.6481237  -5.1880555  -5.5242124 -12.8421545  -5.4516182  -4.2891135
   4.7458944  -8.3665457 -37.5656891   5.6368122  -7.9809933 -37.5151405
   4.8948112  -9.1365108 -38.2094765   5.1701956  45.7066460   3.2752049
   5.1723480  44.8025627   2.7486711   4.1867537  45.8574295   3.1645844
 -16.3662529 -41.3184013 -14.0025015 -15.6504097 -40.7422028 -14.3405018
 -16.4957981 -41.0033264 -13.1008873 -14.1262035  28.4792957  -2.8944337
 -14.3722334  28.5276470  -3.8647926 -13.5209751  27.7395096  -2.9119530
  24.2972832  26.5822277  20.6781788  24.8122272  27.3539143  21.0006237
  24.6345901  25.9305534  21.3228970 -34.7177963  -1.5299499 -33.9768715
 -34.1560478  -2.0278456 -34.6089516 -34.7166061  -2.1406920 -33.2403297
 -18.7633991 -22.2046261  21.5066853 -19.6444321 -21.8119678  21.7232075
 -18.7269192 -22.8978539  22.2020493  19.0590515  23.6727314  -2.4391398
  18.8585644  23.0887585  -3.2031100  18.4005013  23.4033985  -1.7841655
  28.8424835   3.4767354   0.4663099  29.0004616   3.5914583  -0.5237908
  28.2095604   4.2942805   0.5884489  28.4573269 -12.1406727  11.3468618
  28.8687363 -12.2120094  10.4679394  27.6186409 -12.6529369  11.1855459
   0.4941412 -21.8477917  35.3072319   0.2328631 -22.0932789  34.3760185
  -0.1158731 -22.4911728  35.7337532 -35.9294243 -18.3252811   1.3456639
 -35.6644936 -18.4477463   0.4244879 -35.2549477 -18.9318829   1.7643409
  20.6084213 -29.8341103 -29.3281498  19.8502789 -30.1228905 -29.9238586
  20.6983566 -30.7158890 -28.8405933  13.1927452  -7.6763496 -14.6194944
  12.5467367  -7.5167108 -13.8762283  12.7570181  -8.3778210 -15.1001663
 -14.5633411   3.3724911 -41.7280617 -13.7608643   3.0705311 -42.2413673
 -15.2430544   3.0708044 -42.4050484  -9.7775383 -33.2565918  -7.1415033
  -9.9837132 -32.2904015  -7.0817928 -10.2451067 -33.5219727  -7.9520326
  -6.0570183 -42.8667641  -0.0979336  -5.8111815 -42.7364922   0.8602678
  -5.3056874 -42.3517151  -0.4635933   6.7761021   0.1658686 -22.4005680
   6.6679101  -0.2492895 -23.2741814   6.4620857  -0.5209087 -21.7744427
  -6.0110621  28.7565708 -33.4313393  -4.9741435  28.7090702 -33.4158897
  -6.0631843  29.6307087 -33.0737534 -14.6876116  20.4243641 -33.0712395
 -15.3872910  20.4066238 -33.7698517 -14.5928164  19.3943806 -33.0309677
  23.3071556 -14.9819145 -26.5431576  22.4282608 -15.3716717 -26.5433483
  23.8241997 -15.6806269 -26.9763470  -8.1493502  32.7166519 -27.4431534
  -8.9465704  33.1985397 -27.2399597  -8.3009415  32.5459290 -28.4314804
 -25.0228863   3.7852290   2.2913580 -24.7194099   2.8667684   2.5249145
 -25.7948895   3.8504298   2.9714656 -30.6308594  17.0849648  32.5761452
 -30.7766438  17.8610287  32.0444908 -30.1212578  17.4414883  33.3311234
  24.2253723 -12.7882690  21.1116714  23.9545937 -13.6548872  20.6947994
  24.0302162 -12.9423809  22.0964203 -11.8922844  33.0070763   3.9834037
 -11.7970915  32.0935402   3.7459855 -11.6960564  33.4906654   3.1767211
  -1.1186845   5.3195987  19.2181320  -1.1778419   4.3232479  19.0943985
  -1.5163118   5.3553834  20.1435337 -13.0779095 -12.7426291 -23.9675751
 -13.4230280 -11.9800835 -23.4396954 -13.8965302 -13.0396051 -24.4393444
  39.5072479 -24.8997021 -13.2158175  40.4233284 -24.4933205 -13.2568960
  38.9699631 -24.2047482 -13.6304941   7.8817906 -14.6027155 -28.2928791
   8.6867552 -14.4766083 -27.7343636   8.3249788 -14.8917494 -29.1140060
 -18.6035042 -35.3345070   0.9582362 -18.8407574 -35.0639114   1.9022030
 -19.1541653 -34.6546555   0.4984334  12.4886637  16.3923130 -36.4687080
  13.3135185  16.8972912 -36.1888733  12.9480791  15.7775803 -37.1160812
 -27.7204819  13.4445772  -6.4329138 -27.8209705  14.3379297  -6.8820314
 -28.6523476  13.1529274  -6.4475350  17.6348000  41.4830475  21.4032116
  18.0256538  42.0471077  20.6910381  18.5081711  41.3099747  21.9233265
  -7.6615009  31.9940968  -4.7897353  -7.1450729  31.4367313  -5.4447598
  -7.6926384  31.3399620  -4.0221810  28.2753143 -31.6719627  29.7140636
  28.3773880 -32.4180984  30.3870392  27.3537064 -31.9060631  29.4403191
 -20.9212894  26.1440201 -32.6809502 -20.4126930  26.6512032 -32.0079536
 -20.6493931  26.6970329 -33.4372101  -3.6232896  16.8639393  46.1715775
  -3.4302189  15.9983673  46.5477219  -3.4056876  16.6694279  45.2749023
   0.7052318 -22.1606617   9.4992046   0.8724801 -21.4607735  10.1914616
   0.7870815 -22.9746628  10.0131407 -33.5437241  17.9740582 -24.7944012
 -33.4266777  18.6762562 -24.1428986 -33.4276237  18.5321655 -25.6128063
 -19.1380043  40.2877960 -17.9635277 -18.7956867  39.8947830 -17.0922108
 -20.0114822  40.5004997 -17.6204967  -1.9740174 -31.9253159 -11.2585669
  -2.7197065 -31.8156395 -10.5973930  -1.9367311 -31.0446301 -11.6974163
 -18.7471981 -35.7722664  -4.9214187 -18.1008453 -36.5033417  -4.7428946
 -18.7006950 -35.2782211  -4.0744319  11.2062778  45.7830544 -19.2109585
  12.1267729  45.6606979 -19.5142384  10.8111115  46.0745392 -20.0710373
 -24.3604107 -43.8749809  15.9053679 -24.4654217 -42.9646759  15.4981117
 -24.2599049 -44.3990707  15.0412903  11.7996740  -7.5331993  19.0159454
  11.7422876  -7.6310463  18.0014191  12.0441570  -6.5575895  19.0640907
  16.8945198  44.1127205  17.0562687  17.2147636  44.8603554  16.5129890
  15.9605932  44.3686905  17.0765514 -25.9430161  -1.5563028 -27.5263729
 -26.7248154  -2.0511143 -27.1144123 -25.3171444  -2.3009248 -27.7324333
  17.4472828  32.0662689 -27.1290531  18.0019932  31.2382507 -27.2467766
  16.6099739  31.6709404 -26.8164902 -10.3903866  13.7929716   4.4870048
 -11.1536484  13.4045343   4.9173183 -10.8008022  14.0492458   3.6098323
  27.7961636  27.4653206 -22.8263187  28.6666908  27.3687973 -22.3806076
  28.0603294  27.2509174 -23.7685509  23.7981110 -19.9575081  33.1639481
  23.2105103 -19.7984219  32.4060822  24.0709610 -20.8578701  32.9019661
   1.1716582  20.6848278 -34.2084732   1.9081454  20.4233303 -33.6046715
   0.7771286  19.7773247 -34.4025497  -8.1491432 -36.3676834 -10.3340025
  -7.2650676 -35.9865990 -10.1645699  -8.4245806 -36.5675430  -9.3983459
  35.9782639  10.4363813   8.3611917  36.0542564  10.0200987   7.4804029
  35.8559532   9.6846447   8.9358206   5.0780787  35.8424263 -10.0801830
   4.8052254  34.9786873 -10.4883776   6.0500417  35.5560417  -9.9279518
  41.0276108  15.0236759  14.6585131  40.0979767  14.8724613  14.9515505
  41.3542671  14.1628685  14.5557842  16.9821663 -11.7236032  44.2034225
  16.9352932 -12.6811571  44.1998100  16.1698818 -11.4582615  44.6307602
 -16.3320980 -14.5456209 -10.8838539 -16.0204163 -15.3495626 -10.3806696
 -16.1814919 -13.8827286 -10.1938267  37.5023041  30.8217354  -0.7908826
  37.2954979  30.6367092   0.1618492  38.4534187  31.0879383  -0.7347695
  33.2695541 -24.5065804  -8.4723692  34.1080704 -24.8594971  -8.1360331
  33.5575333 -23.7963943  -9.0699730  26.5370655   0.3008946 -26.8103504
  26.2479877  -0.2317260 -27.5534229  27.3390560   0.6798610 -27.1428909
   2.7766175  12.9770632  34.6084595   3.5308089  12.6942644  35.1593895
   2.6092873  13.8765717  34.9114609  40.4573326  27.4367523  -0.9241429
  40.1345215  28.1171799  -1.5803672  40.6155357  28.0311604  -0.2006799
   8.4874182  -5.1240096 -15.2251081   9.3141985  -5.4332571 -14.7705708
   8.9036198  -4.4273629 -15.7979546  15.1790218  -2.2847247 -37.7216034
  14.4505005  -1.6380265 -37.8679962  15.5712128  -1.8450891 -36.8896561
  43.1190567   6.2637863  21.4618759  42.4659538   6.2504358  20.6998444
  42.8938065   5.3935852  21.8475075 -29.5046310 -40.0986900  -2.5828471
 -30.3802624 -40.1839943  -2.1949492 -29.5463848 -40.8774872  -3.2015254
 -29.3782215  17.9473782  -9.1431522 -30.2528210  18.3232689  -9.0050173
 -29.4544907  17.4009705  -9.9397440  12.1806326  -0.7892476  33.1393356
  12.4919624  -0.3782141  32.3047676  12.1860323   0.0617917  33.7007294
   8.6845951 -43.7502747   2.4222286   8.9458761 -44.6642342   2.0305941
   7.7881622 -43.6721344   1.9784958  11.8216686   6.7925334 -33.8850403
  12.0387964   7.5411720 -33.3294830  10.9703083   7.0213418 -34.2560959
   3.8523819  -9.3279276 -43.6882591   3.4384613  -8.8779182 -44.4897346
   4.2054672 -10.1366405 -44.1410522 -38.2186928  -7.2851086   9.4322548
 -38.3563004  -6.9224486  10.3164158 -37.2956734  -7.6116414   9.5529337
  15.7785625  50.6624069   4.3579836  16.1754646  51.2314682   3.6679175
  14.9614038  50.3495064   3.8821054  29.5047112  30.9141140 -12.4127522
  30.3628101  31.3602219 -12.2971954  29.7556133  30.4254456 -13.2011995
  -3.1994858  17.5112553  40.9659424  -3.1703484  18.1461830  41.6858673
  -3.4376252  18.1221657  40.2122269 -29.6973190 -21.6848030   6.6348529
 -29.6027870 -22.1256676   7.5244803 -29.2853737 -22.4759350   6.1522918
 -12.2775316  20.8191223 -20.8664074 -12.2976952  21.1274929 -19.9413910
 -13.1194658  20.4214134 -21.0288792 -14.3517399  24.0145950 -12.1819344
 -14.3051453  24.9992142 -12.0641184 -15.2418575  23.8829193 -11.6963272
 -13.3348608 -50.4562683  -2.5740194 -14.2984934 -50.7027473  -2.5206239
 -13.2803278 -49.6122322  -2.1797853 -27.3725491 -33.7431030 -19.3048973
 -27.1805782 -34.2689362 -18.5292988 -28.3215237 -33.8781738 -19.4407272
   2.7934878 -22.9767113  29.3428726   2.4195035 -22.7942982  30.2111874
   2.2607284 -23.6659546  28.9910679 -26.6818848 -31.2153511  10.9687948
 -26.1798153 -31.1437912  11.8261976 -26.3197365 -32.0465584  10.5766668
  16.1416626  19.0144444  11.6001949  16.1466007  19.1884499  12.5100937
  16.6750450  18.1879177  11.5602579 -32.2684174  -3.8313665  10.1023378
 -32.2812157  -3.1108840   9.3944798 -31.3124886  -4.1163821  10.0366774
  23.0594025 -32.7415810  27.2551880  23.5936508 -32.7325020  26.3946877
  22.8155212 -33.6786079  27.3160667   7.3228951  -3.8204365  32.3608627
   6.4198494  -3.4755521  32.2839546   7.6796412  -3.2669065  33.0589066
  -4.5045309  -7.1848192 -45.2141228  -3.9714291  -7.9452028 -44.8689995
  -4.1980300  -7.0603189 -46.1155586  18.1756916  21.1648750  13.9731779
  18.6991940  21.6851864  14.6187325  17.7165985  20.5658703  14.5877934
   1.1334828  46.2853050  23.2542076   0.5730488  45.5096664  23.3010483
   1.5683019  46.2860489  24.0704231  16.1569042  19.7838516  33.2159233
  15.2926550  20.1362190  33.4019241  16.7199554  20.3667355  33.7096863
   5.7090096   9.2752314 -45.5264969   5.7316160   8.4148207 -45.9992599
   6.2446628   9.0234613 -44.7144928  28.3514099 -28.3811169 -24.0138988
  28.2081966 -29.1863003 -24.4767227  28.9864731 -28.6995144 -23.3194847
 -23.1095142 -17.2076378 -16.0143051 -22.8211994 -17.6856289 -15.2280455
 -23.0321121 -16.2552071 -15.7691679  26.7342968 -15.3098440 -18.6008759
  25.7969189 -15.0959959 -18.7320576  26.8604298 -16.0621357 -19.2057247
  38.2758865 -19.8991184  25.1559925  38.0615196 -20.4251499  25.9711399
  37.5337639 -20.2717533  24.5589199   3.5298014 -10.5561991  46.2036209
   2.8694949 -10.4387245  45.4664764   4.1683388 -11.1991491  45.7289391
 -12.6505213  -3.7511420  32.1650620 -13.5833216  -3.6803374  32.3222427
 -12.7366171  -4.0427508  31.2398300 -33.5555801 -13.7278414  14.6929874
 -32.6001167 -13.5610447  14.6513443 -33.6388359 -14.5908689  14.2703905
 -16.7669811  39.3091698   5.4108863 -15.9201288  39.8181610   5.5576267
 -16.5977554  39.1249733   4.3964610 -11.4742193  19.6503353  -0.3370842
 -12.2581139  19.9195137   0.2249818 -12.0116730  18.9649200  -0.9013716
  17.1268578 -11.3194866  -8.4759340  16.2490463 -10.8948574  -8.4664450
  17.2863159 -11.1438484  -7.5016961 -24.8333817 -22.9643784 -12.8928957
 -25.2575436 -22.7701283 -12.0343084 -23.9717159 -22.4930439 -12.8139324
  -4.6239257 -38.9735413  10.2734909  -4.5724516 -39.1386414  11.2259588
  -4.5172200 -37.9748459  10.2311897  13.8294439   5.1742892 -35.6562462
  14.2524853   5.2865267 -36.5196762  13.4070549   5.9844441 -35.5045471
  33.4759026 -31.9958210 -10.9056416  33.4949837 -31.0383663 -11.1842327
  32.6645241 -32.2558174 -11.2738314  19.3228645  -0.8934559  24.2932644
  18.8360653  -1.0457019  23.4652195  20.1995754  -0.6885259  23.9484825
  35.5333977 -14.9993048   1.0010610  35.2383881 -15.8813543   0.6081210
  34.6254082 -14.6111145   0.8196236 -36.4810562 -26.7257462 -17.2892056
 -35.9835663 -26.6869621 -18.1087856 -36.2322845 -25.8422146 -16.8684235
  14.0253973  28.9603958  18.4969635  14.7388973  28.3797741  18.0874634
  14.3977280  29.0626774  19.4012108  25.2654285 -26.3659382 -32.3969002
  25.8314304 -26.5842857 -33.2071304  25.9883366 -26.2691040 -31.7291222
 -18.0326557  14.3067360  -9.9758568 -17.6297607  14.6515436  -9.1290693
 -17.8545532  13.3318205  -9.8661337 -37.9947395  11.4228296 -16.3186588
 -37.9926147  11.4047480 -15.3462849 -37.3156586  10.7052803 -16.4774475
   7.1444001  35.5826149 -29.9045982   7.2017736  35.4267120 -30.8909016
   6.2448158  35.2168961 -29.7543526  -3.2132127   4.2317562  -7.6959977
  -2.9315836   4.0929475  -8.6530199  -4.1319132   4.5604005  -7.8386855
   9.1762266  -8.0868626 -16.6502018   9.7365999  -7.9923759 -17.4535408
   8.3470974  -7.7673178 -17.0167313  15.6214895  26.3790398 -17.9391632
  15.9319420  26.7678413 -17.1759014  15.0174551  27.1265354 -18.3078079
 -21.0157127  35.0885849 -15.2247696 -20.0392761  34.9898834 -15.1941137
 -21.1065331  35.8086777 -14.5609303  -5.3018413  23.7391777  38.9278679
  -5.9602237  24.3704033  38.6262283  -4.8907084  24.1033230  39.7138863
 -33.1725998  -8.3264055  23.7668476 -32.5121994  -9.0272207  23.8589039
 -33.2387619  -8.2693853  22.7804317  43.3811378  -7.6098118 -21.8565426
  44.0142975  -7.8403225 -22.5974388  43.1757622  -6.6875544 -21.9856701
 -38.2516632 -14.2075558   8.8491154 -38.7043953 -15.0372515   8.9222374
 -37.8165436 -14.1243811   9.6980028  27.5417042  39.5600471   4.6998429
  28.3706703  39.7575188   5.2064595  27.2257938  38.7881088   5.2567964
   7.4053926  10.4282684 -25.2647457   7.8305821  10.8022652 -26.0582161
   7.3687191   9.5059509 -25.4157524  -3.4592595 -31.6775723 -28.6985207
  -3.4513245 -32.5191574 -29.1107121  -4.3224325 -31.6170959 -28.2602119
  14.0383940 -26.7095108 -40.7069893  14.7372637 -26.8395939 -41.3645439
  14.2684765 -27.2982521 -40.0173111 -18.7641907 -23.4245472   6.5123053
 -19.0432377 -23.3324699   7.4779563 -18.9670353 -22.5918694   6.1973782
  -0.7146199  41.1543198 -18.9938698  -0.8418907  42.0520744 -19.3885689
   0.0263735  40.8484306 -19.5186024   2.8311586  17.5755787  41.0260124
   3.2448907  17.9206371  41.8707275   3.4598420  16.7933788  40.9837112
 -10.9512568 -45.5909615 -14.5481319 -10.0658798 -45.5311050 -14.0913620
 -11.3719587 -46.2309074 -13.9857502  -2.6320353  14.6318264  -8.7722931
  -3.2690146  15.1292486  -8.2603436  -2.5535738  13.7747040  -8.3409872
 -15.5875111 -20.7814369 -18.4966717 -15.2465916 -19.9568520 -18.8342590
 -14.9982901 -20.8435917 -17.6857166   6.1016321  23.9880676  28.2297344
   6.4214745  23.7469082  29.1492996   6.8706989  24.5085678  27.9410210
  14.7212610  20.9300251 -31.9340496  15.5672398  21.1306171 -32.4061394
  14.3967705  21.8631306 -31.8638725  24.7397423 -20.0754299 -35.2339096
  24.8934746 -20.9373856 -34.8958855  24.9740467 -20.1658573 -36.2238731
  23.8182030  12.1779432 -18.5267582  23.7811069  11.3766479 -17.9416351
  22.8371067  12.1489105 -18.7649689 -29.0380058 -17.4900303 -19.6918163
 -29.1042595 -18.3413601 -19.3065739 -28.0782413 -17.3620796 -19.6342144
  19.8204212   1.8336074  30.0810509  19.3286381   2.5228105  29.5040073
  19.7380810   2.3291311  30.9085140  30.9545403  25.7377682  11.1438465
  31.8797398  25.8345261  10.9500179  30.7316113  24.9042931  10.6573820
  -2.2783003  25.8582211 -17.3937950  -1.6003536  26.0199299 -16.7276001
  -2.6850924  26.7336578 -17.3876133   0.4883523  -7.9654632  32.2649651
   1.2244095  -7.5780382  32.8098526  -0.0045266  -8.4248924  33.0255127
  -8.7881927 -14.9075603 -11.3694372  -9.6401281 -14.3986158 -11.4605837
  -9.1723166 -15.7808819 -11.6279402  -3.9503670 -34.9760742   0.9346641
  -4.0279140 -35.8872452   0.5881172  -2.9378107 -34.8236656   0.8493950
  28.0158215  24.6755257   5.1335297  27.7822514  25.0708771   5.9862275
  28.0724735  25.5143623   4.6245122  -8.2635107  -8.4462881  23.1395226
  -7.5154071  -8.8619986  23.5323868  -9.0049534  -9.0346470  23.3468189
  13.3158216  18.3612614  20.7378769  13.6129808  17.4655132  20.4961777
  14.1951571  18.8058224  20.8432732   5.0460787 -16.6038055 -43.9068108
   4.7384477 -17.0238991 -44.7829590   4.3234820 -15.9006834 -43.8123360
   7.4679422  -1.2753543  43.0288239   6.8581343  -1.7935928  43.5948982
   8.2577515  -1.7838448  43.1002922   4.6887169 -10.0652962  43.6740417
   4.2704644 -10.5667677  42.9582520   5.5014572 -10.6415005  43.7533760
 -14.5597572  33.3091774 -40.5298042 -14.3840818  33.9833031 -39.8651886
 -13.9047337  33.5568123 -41.1828766   0.4632894  14.8317423 -32.0846138
   1.4233745  14.6951733 -32.2604904   0.0969147  14.1713114 -32.7290955
  -5.8975472 -40.1003418  -6.9124522  -5.3669801 -39.4240112  -6.4547954
  -5.7416697 -39.8448372  -7.8464065 -16.3591709   3.3039012 -45.3324127
 -16.3952332   3.1936083 -44.3363190 -16.0386276   2.4171138 -45.5594521
   5.4797239 -28.2559395 -11.1443634   6.2045012 -28.1279221 -10.5000105
   5.7897906 -29.1002693 -11.5437393 -22.5945854   3.0799897  19.9550400
 -23.1461983   3.8743789  20.2036972 -22.1314869   3.4632671  19.2239342
   4.5874949   1.3939563 -35.7049789   4.4056993   2.0860336 -35.0156975
   3.9252331   0.7127010 -35.3799019 -27.6411743  35.3061638 -27.4961605
 -26.7285862  35.4148865 -27.1255589 -27.4823608  35.4584618 -28.4586506
  20.2173691   0.0850107 -30.8801613  20.8382034  -0.4286266 -31.4041405
  19.3870964  -0.1697688 -31.3446045  11.0156851  27.7471275 -30.1258068
  11.7212334  27.3207893 -29.5948124  11.5179920  28.2198143 -30.8384686
   3.1149123  -7.9121404  43.5746346   3.1664815  -7.8233724  42.5812569
   3.7381635  -8.6464300  43.7194977  -3.7880311  -8.3233738 -16.0430202
  -3.2899332  -7.5779853 -15.6406517  -3.0562665  -8.9552174 -16.2601681
  18.5834713  34.7487984 -22.2322655  18.5041027  35.6941223 -21.9958954
  18.5173378  34.3536568 -21.3591709  -6.6141844  29.5230579  10.7201300
  -6.4770741  29.8126011   9.7941914  -7.0926828  30.2631073  11.0767288
 -23.9872990  24.4508038  13.1589584 -23.7201538  23.9858112  12.3701410
 -23.1359615  24.5160751  13.6420441  24.3327847  -4.9515018  11.4813261
  24.5992088  -4.0711508  11.1656208  24.2244759  -5.4221463  10.6363497
  -3.0978312  39.5496063   6.1450500  -3.8819685  39.2140465   5.6682997
  -3.5603671  40.2549706   6.6603274 -34.6125908  11.7446184  24.5142059
 -34.6492386  10.9004822  24.0227318 -34.4560127  11.4084883  25.4318848
 -14.0717602  33.3384895   9.9493952 -13.2890263  33.6587029  10.5195904
 -14.7713346  33.8428764  10.4047928  38.5894165   1.3329176  14.2907448
  38.0467949   0.6835929  13.7925634  39.2952614   1.4984910  13.6208429
 -27.9220467   2.8326614  44.4260750 -27.9601593   3.4331279  43.6759071
 -28.8614597   2.9803884  44.7876282 -23.9985218 -23.2324982   8.8428888
 -23.5549259 -22.4875278   8.3646393 -24.5948906 -23.5026150   8.1269035
  12.6911612   0.9029247 -19.7932930  11.8901777   0.3298575 -19.5710106
  13.1306496   0.3574884 -20.4532757   9.2101374  40.9529991   1.3073353
   9.9698229  40.7626495   1.8652467   8.5179291  41.1854515   1.9860471
 -15.2768040 -31.6052704   8.7857656 -14.4402313 -31.4054451   8.2597685
 -15.4270315 -32.4424400   8.2530813  41.5971298  -2.9761934 -15.8019085
  41.9496040  -2.2612026 -15.2244415  41.3671837  -3.6005497 -15.0628929
 -34.8142433   1.4413297  27.0230618 -35.1923485   1.1409062  27.8196430
 -34.7916946   0.6629808  26.4663239  -0.5630310   3.1527064 -50.3045044
   0.3649901   3.0737746 -50.7202301  -0.7093354   4.1157770 -50.4759598
  38.9719276 -30.9202499   5.0338469  38.8011284 -31.5317440   5.8147655
  39.1850281 -30.1125889   5.4361777  -6.9465899 -45.4923363  -0.6711959
  -7.7923651 -45.4428558  -0.1198423  -6.7507877 -44.5853920  -0.8644468
 -31.6823483 -15.2344980  20.3795567 -32.1265602 -15.1715975  21.1949539
 -30.8410244 -14.8288755  20.4930191 -37.6204185 -32.1691284   7.7329788
 -36.8655701 -31.6398945   8.1625624 -37.3775520 -33.0210304   8.0862350
 -31.0981503  -9.4656677  35.3211212 -31.4016762 -10.4034967  35.5258598
 -30.7327805  -9.2103872  36.1729469 -36.9836845  -7.9622087 -30.8272095
 -36.7847061  -8.5155535 -31.5647717 -37.6749039  -8.4977913 -30.3603287
 -11.7994900 -18.8227463  30.9701843 -11.3983850 -19.7690048  31.0688763
 -12.7497721 -19.1915073  30.8821011   8.7369938  14.1792459  14.0058393
   9.3572311  14.9536858  13.8520784   8.5006142  13.9739237  13.0826950
 -26.2745609 -17.5774536  -2.8375432 -26.1572762 -18.4022655  -3.4030120
 -26.1239014 -18.0322075  -1.9852021   0.1092537  45.9155884   0.4944289
   0.7206773  46.2961006  -0.1356249  -0.1655997  46.6513748   1.0581990
  36.9766617  -5.9210372  14.1294689  37.3068428  -5.9869099  13.1748295
  36.3341637  -6.6317048  14.0873432  -2.3562891  -5.9697843 -29.2249451
  -2.4086232  -6.6446342 -28.5142155  -3.3205771  -5.7947865 -29.3454056
 -12.0503054 -46.1432457  15.9366751 -12.7743340 -45.7870026  16.4949551
 -11.6357727 -46.8087006  16.5326099  35.3436050 -26.5148811  -0.1889474
  34.7814560 -27.3429871  -0.0108000  36.1888008 -26.8697720   0.1995842
  24.0885525  43.9825897 -15.4857454  24.1794930  43.7953568 -16.4070873
  23.2067795  43.6281548 -15.2981358  17.9653931   0.5434361  18.3072395
  18.8234196   0.6236371  17.8870182  17.3332462   1.1572667  17.9258537
  -3.7465510  17.0297451 -38.1831512  -2.8259377  17.1161785 -37.8263855
  -3.7795448  17.9919434 -38.5526657  -4.3698721  13.6670008  -3.5118258
  -5.1018500  13.1719112  -3.0416715  -3.7475989  13.7228451  -2.7598960
 -24.5460167 -13.4674950  31.0697899 -24.2735100 -14.2941923  30.6435184
 -24.5405827 -13.7464228  32.0025673  42.1625786  32.6257210   2.4261279
  41.5129471  32.9975853   3.1192298  42.8292122  33.3599319   2.5101614
 -16.2626286  17.7284203  11.6425371 -15.5978622  17.5793514  12.3081331
 -16.5922489  18.5978699  11.9521379 -22.1042557  21.6150112  36.3990593
 -22.0076809  21.3393154  35.4736595 -22.2529545  20.7912121  36.8279762
 -34.5688210  27.5271568 -13.0099592 -33.9800072  27.6483974 -12.1949282
 -33.8414307  27.0793095 -13.5915518  -4.7235413   4.4840403  13.8186903
  -3.9756575   3.8485925  13.8598614  -4.4341264   5.1578798  14.5126133
   8.9802313   0.8563812  26.7308788   8.6251135  -0.0424481  26.8184490
   9.7934113   0.7317108  27.2678108 -36.1373711 -27.7601089  -2.5576582
 -36.5404472 -27.3402691  -3.3786697 -35.7038727 -26.9609318  -2.1428797
  41.0485535  17.2105312  -7.7984800  41.1334038  17.5949497  -6.8787813
  40.2527695  17.7266884  -8.0712547 -10.9010086  40.4046364   3.7434916
 -10.6383762  40.8480644   2.9054248  -9.9507341  40.3249512   4.1183810
 -33.2530327 -31.4979706 -11.9935818 -32.2824974 -31.3234959 -12.0939751
 -33.2251282 -32.2175560 -11.3321371   2.0477629   4.1480021 -27.8504601
   2.0125937   4.4081016 -28.8295326   1.2577140   4.6426315 -27.5774937
  18.0432835 -18.0841331 -43.9294052  18.9326153 -18.3060493 -44.3369446
  17.5950336 -18.9861412 -44.0451279  22.5310001 -37.8552628  27.4182301
  21.5700741 -37.8779716  27.3506069  22.8034401 -38.4136734  26.6482124
 -32.2819252 -25.8567829   3.1512418 -32.7991905 -26.0991020   2.3298323
 -31.6553841 -25.1855240   2.7218492 -17.2937469 -10.7677526 -40.6434212
 -17.8697262 -10.1208153 -40.2309036 -16.6315613 -10.1837788 -41.0953979
 -42.0626945  26.9236412  -2.9917636 -43.0269279  26.6610699  -3.2204895
 -42.2282791  27.5511456  -2.3047755   4.1230679 -29.9268990  24.7640915
   4.9779038 -30.4973392  24.7469254   4.4105039 -29.3475380  25.5210133
 -16.6931057  33.3483582 -30.0633774 -16.0521278  33.4058304 -29.3410549
 -16.3526726  33.9315376 -30.7261887 -22.0756626  -8.5827036  23.7965565
 -21.1011562  -8.7541637  23.8480053 -22.2553520  -8.9086971  24.7548275
  29.4558315  37.0941544   8.7886715  30.2472115  37.5775414   8.7441130
  29.7033062  36.2630997   8.4064684 -21.3675041 -18.6712532  17.4016380
 -22.2521553 -18.9207573  17.0317860 -21.5829678 -17.7268028  17.7070370
 -29.9976482  11.4331255   7.3509316 -29.5330658  12.0643606   7.8863220
 -29.9783611  10.5839720   7.7937479  14.8572598 -16.7971287  50.0910492
  15.1094341 -17.6657429  49.6814804  13.9873848 -17.0667286  50.4908752
 -26.9598312  -7.5869007 -22.3679237 -26.2219467  -7.3026567 -21.7360077
 -26.3556824  -8.0208359 -23.0882206 -17.0876541  31.6550484  -7.7552338
 -17.9834900  31.2893257  -7.9855471 -16.5130768  30.8491993  -8.0586767
  34.3010826   8.4977140 -23.4377518  33.2861137   8.5979834 -23.4174633
  34.3684998   7.8303490 -24.1185036   0.1924235  16.2322159  -7.5836549
   1.1364104  16.5078621  -7.6696868  -0.2829301  16.9528923  -8.0478563
  -4.2428679  15.8651228  26.1558723  -4.3620396  15.4834347  27.0470867
  -5.0072999  16.5232334  26.2292843  -2.5454752  19.5942726  39.1052017
  -2.9481394  20.2879448  38.5142822  -1.6474303  19.5545425  38.7410622
   2.7308996 -11.6841211 -23.3808346   3.4344704 -11.1093569 -23.7129822
   3.2976856 -12.4503775 -23.0412788   3.5993893 -31.3437443 -36.3963509
   2.7406101 -31.7004662 -36.7744942   3.3230231 -30.4305019 -36.1842690
 -28.2401752   1.8107495  38.3913040 -29.0394249   1.5519629  38.9709282
 -28.0688190   2.7104540  38.6502647 -15.4565744  -7.9527965  15.9395123
 -14.6180964  -8.4161253  16.0757446 -15.9296799  -7.9686112  16.7911701
 -27.8756409 -29.4856663   4.4078465 -27.3421822 -30.0327835   5.0024753
 -28.3165569 -28.8506107   4.9804702   4.1205516  37.5610237   4.0847564
   3.2676706  37.0898972   4.0561914   4.0029078  38.0654030   4.9541450
 -12.2941818 -15.9928789 -30.3764362 -13.0588846 -15.9455395 -29.7299156
 -11.8331776 -16.7517834 -29.9007683  32.4700203 -26.0817604  -6.2615814
  32.3540001 -25.6559086  -7.1380706  33.2204208 -25.5542145  -5.8709326
 -30.5551662   3.8101380  21.4789104 -30.0948582   3.6801603  22.3246021
 -30.3653126   4.7632623  21.4235592  30.4332676 -25.5511723 -31.0079155
  30.5877590 -26.2523708 -31.7120800  30.0165863 -26.0321522 -30.3192787
  -0.8540160   0.7838205  31.3304691  -0.2497556   0.0779291  31.6707573
  -0.8102925   0.4677072  30.4025822 -26.1539440  25.0198517  -4.4714870
 -25.8768063  24.1177979  -4.3692503 -26.9970798  24.8729191  -5.0491767
  -6.1754632  42.3478622   3.8712378  -5.2747664  42.6837006   3.7005522
  -6.6457725  42.7419968   3.1351287  10.8049097  -5.3323689 -51.1096497
  10.6485605  -4.6307912 -50.4927483  11.8047714  -5.2568550 -51.2364616
   9.5360508  31.6777134 -14.1897192   9.4348888  32.3874588 -14.8560715
  10.4926090  31.9460773 -13.8975115 -11.5769844  -3.4802785  44.5312424
 -12.4465971  -3.1807659  44.7662582 -11.0766249  -2.7015357  44.6446419
 -11.6926060  -0.4029860   8.6872225 -12.6472645  -0.1897509   8.7494955
 -11.5111151  -0.7336069   9.6846561   7.8445702  -0.0847172  15.8874445
   8.2182541  -0.6192333  15.1141338   8.6482134   0.1409315  16.3527374
  -0.7202217  21.7428875 -29.9088058  -0.9803672  21.3855076 -30.7641220
   0.2808204  21.5957298 -29.9664364 -30.6032925   1.8154013   6.1357656
 -31.5949326   2.0120506   6.2133060 -30.3066120   2.2776756   6.9170175
 -30.3127956  33.3181152  14.5244131 -29.8664131  33.6950798  15.3277159
 -29.6679573  32.7787094  14.1611576  14.9425011  16.6936436 -35.0436211
  15.7747755  16.9666672 -35.3818359  14.6486416  17.5081482 -34.6043587
   9.9958363 -34.3911667   2.9175699  10.7219152 -33.8690643   2.6638865
  10.3479519 -35.2796135   2.7450380  -6.0359149   8.1966181 -12.8953018
  -6.4910192   7.5922489 -12.2561007  -6.7638087   8.8189430 -13.0858030
  23.2084122 -28.7091923 -32.8852959  23.2465763 -29.7415104 -32.9719276
  24.1664276 -28.5323486 -33.0431023  23.3716469   9.0059538  -2.4649868
  24.0221024   9.3467188  -1.8107942  22.7728386   9.7513571  -2.4802775
  43.7000122 -12.4089308  20.3175793  44.0182877 -13.2655230  20.7567234
  42.7623940 -12.4631100  20.5949745 -21.6351814  17.1167946 -43.5671425
 -20.7228508  16.8254108 -43.7678413 -21.8711033  16.4920769 -42.8297119
   1.0057299  37.2726021  14.6454411   0.3052674  36.9964256  13.9809551
   1.7001884  37.5431747  13.9313908  18.4817410 -11.3224669 -28.6381950
  18.4052296 -10.5616732 -28.0365925  19.4389153 -11.5170803 -28.6134205
  23.5101452  25.6440296  -6.5212059  23.0674591  26.4393940  -6.1309419
  23.2321815  24.9529018  -5.8697042 -30.7275734   0.0977760 -34.3311501
 -30.4914494  -0.7052826 -34.7750969 -30.1871300   0.1103423 -33.5294342
 -43.2670364 -19.8354778   3.1898730 -43.5436287 -20.0135269   2.2799811
 -42.2958832 -19.7766361   3.0733027  -8.7959585  27.7168465 -28.3338718
  -8.3335323  28.3092499 -28.9846516  -8.1794233  27.8016319 -27.6285477
 -20.1555367 -25.2185650 -15.6804447 -19.8439407 -26.1288414 -15.4699774
 -20.6555805 -25.0225544 -14.8577652 -37.4128609 -29.5644073   6.7949600
 -37.9914665 -29.4234505   6.0464816 -37.6266594 -30.5417500   6.9656186
 -29.0938072  33.5918503  -1.4146432 -28.6807041  34.1558876  -0.7204813
 -30.0042400  33.9151993  -1.3089353  17.7544155  13.1346254   1.5313023
  17.1369038  13.8279047   1.2271981  17.2825050  12.3019609   1.3828167
 -21.4549332 -47.1841774  15.0642805 -20.7970314 -46.5869980  15.5277004
 -21.1805534 -47.1262894  14.1291637  -4.6287036   9.2535353 -37.1458549
  -5.2898803   9.3952293 -37.9057159  -4.2584457  10.1624107 -37.1833649
  -0.3647786 -11.9007902  21.4240074  -0.7363911 -11.0400381  21.3403492
  -1.1276464 -12.4585934  21.5340271  19.8383770   0.8364018 -24.4861164
  20.1830940   1.7100612 -24.8159714  20.5677471   0.2171454 -24.7171764
  37.4646950  26.2594585  23.3206520  37.8247299  27.0305576  23.7984161
  37.0592995  25.7826328  24.0618076  40.5817184  15.4329338   5.6952243
  40.3924522  15.9408035   4.8892794  40.9337540  16.1018219   6.2566276
  -8.0982704 -28.7157001 -13.4950809  -7.6203294 -29.5621243 -13.2047949
  -7.3664322 -28.2423267 -13.9012117 -11.5685139 -17.9407539   6.1037545
 -12.2341242 -18.6325932   5.8189240 -11.4722090 -18.1818409   7.0862727
  42.3971100  20.2835293  12.4778585  41.4263344  20.3267345  12.2113638
  42.3438263  19.6058025  13.1515741  -2.7206557 -10.9605732  24.1287174
  -3.2928321 -11.6201916  23.7174664  -2.8026977 -10.2099371  23.4838428
 -14.3989754 -44.2125130  -6.9078155 -13.5194483 -44.1799927  -6.4193830
 -14.6938934 -43.2620010  -6.6576343  29.1021156 -13.5950918  -6.1062999
  29.5682278 -13.9637356  -6.8848906  29.6247120 -12.7669601  -5.9742885
   7.4255662  23.3135719  30.5870476   7.9321332  22.6642838  31.0294991
   6.5713367  23.1828938  31.0433502 -22.3345890   8.9019461  32.1866837
 -23.1140957   8.3708134  32.0013428 -21.8484497   8.2568436  32.7074547
 -30.6859074   1.8362314 -23.5360641 -31.4777718   2.3739851 -23.8102531
 -30.7350330   1.1266291 -24.2345047   6.9847956  43.9564743  16.0921803
   6.6574349  44.8495407  16.3629436   6.7463107  43.9441948  15.1386976
  -7.0581446   4.3664732  35.1003571  -6.5845852   4.8176336  34.3914070
  -6.4966993   3.5782948  35.2509499 -38.8724823  12.5881491  12.2193556
 -39.0237083  13.5449209  12.1927032 -39.1068993  12.4229994  13.2116861
 -31.9654102  18.6989498  -8.1949921 -32.3755455  19.4820461  -8.6072664
 -31.7014160  19.0988770  -7.3354039 -35.4734039 -20.7868595  -8.8220129
 -36.3446465 -20.7189350  -9.3008556 -35.1714478 -21.6140842  -9.1067848
 -11.3759613  23.3359680  18.6292191 -11.8389425  23.5913277  19.4681740
 -11.1297436  24.1673145  18.2825546  33.8026314  31.3916130 -13.7446871
  33.3756218  30.6050339 -14.1268444  34.6933937  31.3208160 -14.0140886
 -28.6422844  19.6984997  10.8780708 -28.5778198  20.4237423  11.4079800
 -29.1230240  19.9320679  10.1055670  27.2672634  -5.2349997 -21.4120083
  27.5747166  -4.4345250 -21.8773518  28.0602608  -5.7916751 -21.4871483
  27.3694611   7.7556028  24.7868786  26.8834763   8.5423479  24.4625492
  28.1238785   7.7555876  24.1733398 -29.3307266 -13.9499359   8.0477266
 -29.9297752 -14.5393105   8.4083042 -29.5414791 -13.1178007   8.4299431
 -13.9343462   8.8904791 -35.8002625 -14.5191631   8.1677237 -35.6213837
 -13.4613647   8.5958099 -36.6547432  -5.4188867  20.4403305   0.6073061
  -4.8331413  21.1128864   1.0305641  -6.1563807  21.0753460   0.2990123
  35.6966400  -0.6630269   9.1548452  36.3316727  -1.1028830   8.5392389
  34.9217377  -0.5401588   8.5801630 -12.7154245  14.9814854  -7.6103430
 -13.6121140  14.8029766  -7.3569608 -12.2689734  15.1924963  -6.7685795
  -4.8148079  -0.9156870 -31.9181614  -4.3643370  -0.0924351 -31.5487423
  -5.5576968  -0.4675097 -32.3976669 -12.5411797   6.7070122  36.6800613
 -12.0692091   6.0560384  36.0454750 -11.8246374   6.5710478  37.3887939
  15.0021276 -28.3798428  -8.7626657  15.1788731 -29.3251247  -8.3520174
  14.8830032 -27.9755936  -7.8004265 -23.3668346  37.6035576   6.0872331
 -23.3144493  37.4066238   7.0356684 -23.5580921  38.5171852   6.0346050
  11.2028704  48.3102798  -4.9783382  10.5236797  48.9516144  -4.4870129
  11.4183702  47.7729034  -4.1710787 -10.0043859   7.2580752  45.4122658
  -9.2406425   6.9128213  44.9029045 -10.4825554   7.7692642  44.7097702
 -21.7006836  39.1320076  -6.2964888 -21.3208809  39.0614548  -7.1590028
 -22.0142288  40.0943451  -6.2910285  35.8750992 -14.1709175  19.9124832
  35.8649063 -15.1341228  19.9025288  36.8194389 -13.9248924  19.7210236
 -32.4540329  35.2533646  -6.1498637 -32.3025017  36.1479797  -6.5063338
 -32.6550446  35.4415207  -5.1765437   4.3729134   8.9451485  25.2689285
   4.3082709   9.9249744  25.0538368   3.8502569   8.9615564  26.0994129
  44.3444061   3.5436349 -34.5708237  44.8114700   2.7227752 -34.2139549
  43.6443558   3.5289741 -33.8895683   3.5719128 -31.0318489  21.8330040
   4.2334156 -30.7034416  22.5229092   2.7319419 -30.7610550  22.3083229
  -5.5084829  -7.4810023 -33.8388519  -5.2333403  -8.4227476 -33.6758461
  -4.6028724  -7.1002612 -34.0877876 -44.1575203  29.2815723  17.1574154
 -44.8566856  29.5634575  16.5895329 -44.2375450  28.3289223  17.1853199
 -10.1824265 -14.5958157  25.8799973  -9.9899282 -15.5420036  26.0937328
 -11.1122065 -14.6592121  25.6961918  32.6188011  12.0825500  16.8764610
  32.2538147  12.8997498  16.4993935  31.8339977  11.7345991  17.3722992
  18.8589153   7.4243698  41.5803871  18.4559250   7.4370065  40.6808624
  19.7832565   7.3260388  41.3441505 -18.4541931   8.0261841  25.1709671
 -17.9514427   8.8826065  25.3866749 -17.8133945   7.7110314  24.4736748
  24.7593517  -9.8562794 -27.2783051  25.0875149 -10.0680447 -28.2014580
  24.6022015 -10.7970276 -26.9367390  -4.0789471  30.6614761   9.0642281
  -3.6114306  29.8609943   8.8546600  -4.3525758  30.9594955   8.1920271
  -6.8335385  14.3416691  -1.4590554  -6.5284286  13.4919271  -1.1841249
  -6.3747220  14.9029131  -0.8669277  31.2682858  -0.8573573  28.4807129
  32.1668396  -0.4535961  28.4851170  31.2262974  -1.1200707  27.5315132
  35.4131508  21.2589264 -19.3775177  34.4185944  21.4362965 -19.5045414
  35.3361473  21.0224609 -18.3739452   7.3536839 -22.8886795   1.3141475
   8.1309404 -23.2744408   1.7691340   7.3762846 -23.4989529   0.5087280
  18.3659229  29.6436462   0.0331469  17.6133137  30.0758419  -0.3965453
  18.2013035  28.7309055  -0.3154433   5.4548469  19.5782299  20.9797726
   6.1184330  18.8357601  21.0404510   5.5027161  19.7169323  20.0102692
  28.1030560 -22.7686062  16.0452805  27.2122402 -22.3771610  15.8432665
  28.0551548 -22.6268311  17.0430794  39.5148811  -8.0554514 -28.1187267
  38.8614578  -7.4673567 -28.5177097  40.3713303  -7.6449575 -28.3394909
 -28.4066696 -21.6714935  13.2438860 -28.4478340 -20.6889400  13.1967163
 -27.8612595 -21.8976326  12.4463577  12.0858593 -36.6553345  10.0520039
  11.3220396 -36.7200584  10.6218786  12.2437086 -37.6018524   9.8610687
 -13.6742334  36.8249207  22.4938869 -12.7003336  37.0579796  22.3168240
 -13.4728203  35.9449234  23.0043831  34.7488899  -4.9013028   6.1307540
  34.0028191  -5.0390582   5.4802241  35.3106117  -5.6374655   5.7764792
  39.1958084  -6.2854767  20.1027832  39.3543396  -5.4644933  19.5586052
  39.5977745  -6.0114961  20.9519958 -43.5963364  14.6703482 -13.9652939
 -43.8578491  15.6545305 -13.8096924 -44.3444862  14.3415461 -13.4180183
 -36.8369293 -13.7850266 -19.6266174 -37.5823174 -13.2878599 -20.0178604
 -36.1605148 -13.5249243 -20.3227673 -19.1527901  28.7548561  27.0283413
 -19.3619804  29.2615013  26.2144260 -18.4284439  28.1927834  26.6814327
  10.1416759 -35.5364075   5.3915095   9.2174788 -35.4713669   5.7138720
  10.1307573 -35.0104828   4.5827456   3.4041374   8.9451237   2.6516428
   3.6653357   8.5718260   3.4814730   4.1909456   8.8346777   2.1040194
  -8.2586889 -39.9950638  -0.4280613  -8.7402735 -39.3376694  -0.9971518
  -7.3816547 -39.9939995  -0.8508072  14.8985929  34.4291344  10.4500303
  14.2834091  34.4550858  11.2620249  14.2146568  34.3477821   9.7592602
 -29.8696537 -13.0010586 -16.2564011 -29.6599808 -12.3805494 -17.0212250
 -29.6182137 -13.8758430 -16.6517372  32.4698296  -7.7892761   8.4339190
  32.3149414  -7.0112853   8.9486532  32.0170593  -8.4690208   8.9193268
   1.6179739   2.3618624  48.1434517   1.2834319   1.9083511  48.9772530
   2.3541353   1.8288254  47.8944206   0.5439883  20.1422253  18.7465534
  -0.3188664  20.4951553  18.9287758   1.0275052  20.8938293  18.4564018
 -31.1296501 -32.6114960  22.1638260 -30.3399906 -32.7957726  22.7802792
 -31.2162838 -31.6883335  22.2453804  15.2433481 -13.8344784  19.7352257
  14.8378735 -13.7726078  20.6205845  14.4945993 -13.5422535  19.1786499
  14.6007986 -26.1081028 -26.7163525  14.7563562 -25.1379108 -26.4374256
  15.2822952 -26.0995541 -27.4549999 -26.8904610 -38.5793266  18.5843182
 -27.3605042 -39.1321983  17.8619709 -26.1576862 -38.2544594  17.8909550
  -9.1598768  16.3024654 -14.7738457  -9.6166506  15.9548483 -13.9656019
  -8.7914400  15.4769888 -15.1105833  -6.3378320  44.4074669 -19.8211937
  -7.1211658  44.7722244 -19.4342823  -6.3502126  44.7879448 -20.7128048
  13.4727125 -30.4453964  19.8650818  12.6752958 -30.9276600  19.5102272
  14.1315880 -31.2290287  19.8751488  -6.0475688   0.7578999  40.0783730
  -6.5299654   0.5491450  40.8842506  -5.5456800   1.5371872  40.3322296
   9.6489420   2.6185775 -28.9722462   9.5782585   2.2409008 -28.0799046
  10.5009947   3.0867498 -28.8902416  -5.7850986  16.0391712   0.3574856
  -6.1790643  16.9137344   0.4349656  -4.8115034  16.2715416   0.1892496
 -23.7798176  -0.0906827  33.6263657 -23.3564739   0.6743551  33.1665726
 -24.5100231  -0.2600153  32.9738808  15.8957310  46.6912575  19.5080719
  15.7235994  46.9663963  20.3993168  16.2748928  45.7897301  19.6027145
 -10.1889324  -9.9396973  40.8951454  -9.7660675  -9.9269857  41.7626381
  -9.5444775  -9.4823389  40.3037682  17.3177071 -39.3433800 -18.0925007
  16.7771931 -38.5400696 -18.2127323  18.1601181 -39.0412865 -18.5014324
 -38.5712128 -31.7954063  11.9827366 -39.2956963 -32.4585457  11.8064661
 -39.1281776 -31.0362644  12.1410761  31.8289280 -22.6508808  -6.4521842
  32.1121788 -23.3678226  -7.0916176  31.1291122 -22.2353001  -6.9409223
  22.6804218 -27.5435581  -1.2097483  21.7962608 -27.1244450  -1.0765880
  23.2528553 -26.7342911  -1.1755953 -13.9735365  17.5466785   7.1300802
 -14.7980042  17.5723934   7.7264123 -13.3301458  18.0783291   7.6696858
 -31.6797543  31.0204029 -17.6378479 -32.1628990  30.1954403 -17.5140610
 -31.6243114  30.9582176 -18.6748447   8.6192265  -8.7960691 -23.1689377
   9.3992424  -8.2889643 -23.2274818   8.8718996  -9.6512518 -23.5817356
   1.1759559 -26.4383526  21.3363914   1.4844501 -27.0021877  20.5898075
   1.9156462 -26.6465530  21.9603691  18.3527737  47.0007019   1.8919996
  18.8424225  47.2837029   1.1450492  18.6166325  46.0532722   1.9090241
 -25.6976433  34.3157349 -15.2846031 -24.7849789  34.3443909 -14.9735518
 -25.8669720  33.3544769 -15.2358894  -2.1729805 -11.5160360 -22.9046593
  -3.0337718 -12.0108099 -23.1707954  -1.5779234 -12.3535557 -23.0720463
  23.9242172 -16.6216145 -22.0849895  24.0962925 -17.5708637 -21.8491993
  23.2502384 -16.3706264 -21.4116669  18.1359749  15.3618793 -30.8842926
  18.9203796  15.9355354 -30.6800747  18.4911118  14.4615726 -30.6558685
   9.3354530 -11.7177382   1.4686517   8.9235086 -12.5441236   1.6859553
   8.8523817 -11.4661064   0.6727680  -9.6858196  10.3209581 -43.2712479
  -8.9174643   9.7286167 -43.0855370 -10.0839729  10.2869940 -42.3768883
   6.8272319  42.7231483 -13.7865410   6.2016993  42.2292709 -13.2960749
   6.4666085  43.6193428 -13.8365250   6.8786025  -7.8402920 -21.3456631
   7.6332884  -8.0383139 -21.9061737   6.6299229  -6.9512854 -21.6375637
 -31.9901409  18.1720562  11.4581041 -32.3594170  18.2077808  12.3571434
 -32.4865761  18.8816566  11.0438662 -42.3027840  23.5282192   4.0166221
 -41.6729660  24.3083553   3.9162762 -41.9044189  22.8594418   3.4277408
 -39.5898094 -11.3171949  14.3297529 -40.1975288 -11.6536760  13.6678925
 -39.3356972 -10.4459667  13.9811497  21.2229080   3.1424539   3.7494645
  21.7804756   3.7482247   4.2957139  20.8087959   2.6853061   4.5007129
  34.3990517  -9.9443388  31.3969688  33.7162666  -9.7682838  30.6688633
  35.2254677  -9.8574181  30.8661308   5.2693853 -18.6822929  30.9835224
   4.3178325 -18.3335209  30.9170494   5.1648684 -19.5486546  30.6280861
  41.7525673  -3.6824749  33.4794731  42.2494392  -3.6705704  32.5368576
  41.7718964  -2.7034850  33.6162186 -16.7293854 -36.6655998  17.5160084
 -16.3706532 -36.2190170  18.3028965 -15.9377737 -36.8689995  16.9901428
  15.1199551  16.7947464 -25.8479729  15.9427176  16.1758251 -25.7013493
  14.4380035  16.1270199 -26.1313801 -22.5400887   4.2301397  28.8035641
 -21.6699734   4.7340646  28.8334980 -22.0734272   3.3410664  28.7927628
 -29.2240391  19.8284111  -1.2415365 -29.4197521  19.0490017  -0.6877663
 -29.4859047  19.4580040  -2.0994468  15.6859217  22.8161888 -11.7012873
  14.9535675  23.4934120 -11.5902700  15.1838799  22.1476326 -12.2300034
 -17.5197296  -5.8605075  33.9265404 -17.9111729  -6.4882202  33.2788353
 -18.1536427  -5.1382380  33.9162560 -15.6036501 -47.4696770  -6.5351529
 -15.2962065 -46.8456573  -5.8565125 -16.4512768 -47.7232628  -6.0943518
   7.7479601 -16.3505421 -17.0173740   7.5448456 -16.8039513 -17.9080753
   7.7330022 -17.1345978 -16.4725285   6.7037377   1.2445090  43.0920715
   7.6300812   1.4831038  43.2785950   6.8661623   0.2883243  42.9263954
  35.1512985 -22.9157524  -9.9646339  35.1449585 -22.0094147  -9.5438232
  35.9128990 -22.7379932 -10.6102915 -30.5246639  20.3252640   5.6891031
 -30.1233253  19.6595631   5.1048274 -30.9703999  20.8785229   4.9926357
  17.5912037  29.9290581 -24.8245354  18.1060677  30.6692638 -25.2819309
  17.0310135  30.4241104 -24.2808266  -4.8495326  -5.2890201  12.9745836
  -5.2559547  -5.1050072  13.8025866  -4.0175943  -5.8040838  13.3412800
   6.4066458 -32.5304909 -37.6388588   5.7086277 -32.0225563 -37.1071815
   7.1693182 -32.5120735 -36.9939041  -1.9178149 -29.4871445 -19.0565853
  -2.4526796 -28.9857559 -18.3762589  -2.2635612 -29.0354004 -19.8860130
  39.8963966  -0.0491808   5.0900979  39.2551460  -0.0095226   5.8294096
  40.7483826  -0.0444465   5.5141807  19.8919792  24.6927223   7.9239192
  19.1123428  24.1267509   8.0906420  20.5892906  24.2234535   8.3878012
  -1.0506035 -35.5484276   7.9377542  -0.2928849 -35.6893196   8.5337429
  -1.1110808 -34.5622902   8.0211668 -22.2472382 -26.0667267  22.1274605
 -21.5484962 -26.7360592  22.3602581 -23.0223579 -26.5886784  22.3633499
  36.4288177   5.0907669   3.4935756  35.4907455   5.0933843   3.5711465
  36.5774155   5.3158884   2.5183392 -42.3306236  18.3113003   9.2068920
 -42.6972504  18.3833103   8.2795496 -41.6283493  17.5769882   9.0452547
  33.2033157 -12.8231363  31.1975784  32.8816833 -12.5125866  32.0719566
  34.1826096 -12.6621971  31.3300781 -23.4765816  21.8817596 -24.6598606
 -23.1542263  21.1306324 -25.1318054 -23.4869289  22.5839767 -25.2864704
  20.6848049 -20.9027786 -29.3307266  20.1702137 -20.1319771 -29.7130890
  20.4291897 -21.5895615 -30.0368309   5.9757066  11.5908556   9.9942865
   6.1650062  11.3415918   9.0683203   5.7312655  12.5031624   9.8904972
  -8.4988708  -3.7741501 -21.3160610  -8.7473593  -2.8861859 -20.9593716
  -8.0243864  -4.1863308 -20.5478840   4.5883217 -22.6558189 -34.7384987
   5.3903813 -22.1208439 -34.7457581   4.5392141 -22.9753017 -35.6012573
  31.6867447   4.3740268  -4.7223039  30.9469032   4.8836508  -5.1665244
  31.8470554   4.9321980  -3.9972425  -5.6109638  11.0832052 -44.8863831
  -5.1007733  10.5288677 -44.2380371  -6.0477762  11.6547842 -44.1210365
  34.7090988  18.7573051  25.4841843  35.3488426  18.5267925  24.7771854
  34.9426231  18.0099888  26.0830669 -33.3264618 -21.1910572 -27.4186172
 -34.0326347 -20.5363617 -27.6848278 -33.6596069 -21.5169182 -26.5530891
  -2.1243830 -25.5178967  34.3482590  -1.3681978 -25.9076252  33.8349533
  -2.5728216 -26.3688869  34.5560341 -11.3640022  -9.8840036  35.0092010
 -11.7468061 -10.4126177  35.7641602 -11.1785669  -9.0132217  35.4677467
  -7.7323503  37.2782516  32.1870728  -8.2340536  36.5778122  31.6128998
  -7.0948853  37.6092567  31.4345989  -2.9986582  13.7483797  32.2631073
  -2.1989391  14.1902018  31.9110813  -3.4854662  14.5844593  32.5419197
  24.8695068  10.0556765   8.0062122  23.9887581  10.2602549   8.2794676
  24.7743969   9.9778843   7.0385280 -14.6558123  41.2862473 -30.0985794
 -13.7653513  40.8354759 -30.2572327 -15.2341213  40.6773491 -30.6505890
 -20.8508854   8.9506054  -0.4191950 -21.3944683   9.5920982   0.0429836
 -21.4940758   8.1771002  -0.2778659 -14.3452463  -8.5263281   5.5598722
 -13.8838844  -9.3672266   5.8513575 -14.1158638  -8.4993143   4.6169667
  -3.2403648   0.3224143 -41.2565918  -2.7582688   0.0530624 -42.0601311
  -3.5253572   1.2384001 -41.5208397 -27.1284809  -8.9591160  16.9531918
 -27.0422554  -9.1707859  15.9648762 -26.6838074  -8.1074495  16.9810085
 -12.9681711  -6.4216356  17.8741207 -12.1580257  -6.3633718  17.3432198
 -13.5661135  -6.0802789  17.1779022  40.1745949 -18.8459854 -22.8162613
  39.4311981 -18.2302380 -22.8599281  39.7320366 -19.7116413 -22.8755875
   0.3725560  24.4254570 -30.7395267   0.9124516  23.8385353 -31.3923473
  -0.2305630  23.6766434 -30.4847603  19.9805870  17.4727859  10.2999420
  20.3430519  16.7042656  10.8492479  20.0913563  18.2027397  10.9540272
  33.5623169 -31.1571541 -27.0515175  32.7640266 -30.6725922 -26.8841801
  34.2509804 -30.5087833 -27.2580318 -14.7235680  -5.6143517 -23.3230362
 -14.5115738  -6.4377413 -22.9441452 -13.9178181  -5.4443235 -23.8727512
  31.3471127 -14.0504780 -16.2579765  31.6121597 -13.1518536 -16.0969849
  30.3847427 -14.0282354 -16.1967678  -3.4745216 -42.4129181 -17.7298412
  -4.2192578 -42.9824371 -17.4385071  -2.8399734 -42.5174332 -17.0100651
 -16.7544003  28.1816978  19.4606094 -15.9517498  27.7790718  19.8512192
 -17.2760448  28.3760319  20.2478485 -35.4983902 -23.0271168  17.3267422
 -34.9585648 -22.2921524  17.0395794 -35.9297180 -23.2960415  16.4959507
  22.6221924 -14.4481554  33.0693245  23.2724419 -14.0921621  33.6550522
  21.8451767 -14.5785580  33.7184944   1.5801750 -23.0444260 -18.5428658
   0.8099746 -23.6665039 -18.6737213   1.2517322 -22.1745777 -18.8309517
  -6.9440179   3.1792963  49.6026039  -7.4133162   4.0146565  49.2476578
  -6.5241604   3.5339069  50.3693314  27.8424435   5.6097636 -20.0834827
  27.2402897   6.1910086 -20.5602589  27.6769962   4.7151384 -20.3584213
  29.6121216   7.7706170 -17.0926666  28.8911686   8.1408463 -17.5157356
  29.3132381   7.7422824 -16.1503544   2.5387492 -44.2000580  24.2729454
   3.2835851 -43.9749031  23.6897888   1.7410510 -43.9486160  23.7592030
  13.7049847  35.3997841 -10.1644859  13.2093124  34.7941628  -9.5359402
  14.5318480  35.4649696  -9.6043386   7.3750567  11.8400841  15.3707733
   6.7739625  12.3256178  14.8054781   8.1433716  12.4511805  15.4142675
   3.0409114  44.1097488 -13.8039198   2.7036579  44.6194420 -14.5961390
   3.0031734  43.1844254 -14.1471138  23.1654472  36.6664467  -4.0132971
  22.4374084  35.9984894  -3.8611572  23.9335747  36.0701904  -3.9992125
 -29.3407726  12.6354647 -38.9196014 -30.2034054  13.0421219 -38.7138481
 -29.1739388  12.0353413 -38.1710396 -33.2430267 -13.7100468   5.0321651
 -32.7836304 -13.5506372   4.2081614 -32.9080658 -13.0053864   5.6202536
  34.1095009   6.4692650 -25.4358768  33.2068253   6.2228045 -25.6685390
  34.3551865   5.6914959 -24.8786659  38.0176659 -14.9115019 -24.5305958
  37.5836868 -14.0959415 -24.8002968  38.2178612 -15.3652334 -25.3667793
  -0.8919432  16.3523521  35.7944183  -0.1657841  15.6977024  35.5678406
  -0.7019958  16.9928322  35.0532112  -1.6759200 -27.6661987 -26.4593468
  -2.5651348 -27.7306919 -26.0118065  -1.5252850 -28.6349583 -26.5741119
   9.0023451  11.8965912 -19.6750050   8.1863213  11.3760309 -19.7458248
   8.6650295  12.6154928 -19.0387383  13.9368649   1.1757171  23.1735249
  14.5001144   1.1753521  23.9205189  14.5982571   1.1402189  22.4438114
   1.2783165  11.7038031 -12.2818050   1.1716528  10.7437201 -12.1876650
   2.2280474  11.7234707 -12.5355530  17.0683212   8.3962145  -0.6605787
  17.6940155   8.6256790  -1.3998303  17.3248920   7.4166040  -0.5665221
 -15.4862385 -18.9537697  14.3766356 -15.3791742 -19.9653072  14.2782612
 -15.6841774 -18.7492752  13.4124241   9.5028639  24.7861195 -18.7363701
   8.9424009  24.2882004 -18.0572338   9.1174536  24.5254307 -19.5581112
  32.3313789 -35.3718414   1.1566367  32.5291061 -34.3987885   1.3405380
  31.5187263 -35.2197418   0.5663210  -9.3637514 -16.2103825 -16.1430759
  -9.8821363 -15.5020514 -15.7277613  -8.6250772 -16.3036137 -15.5123205
 -16.4437542  -5.4440904  -0.8653753 -16.5577526  -5.0449662   0.0282651
 -17.2326832  -5.9582434  -0.9783745  12.2282743   3.5183780  14.8859911
  12.6634483   4.1264124  14.1919279  13.0238943   2.9368370  14.9441385
  42.5746117  22.5871639  13.7252674  42.2244072  21.9407959  13.0441551
  42.8252373  21.8868923  14.4154329   2.9273515   7.9869256   6.0743499
   3.5892558   8.7186079   5.8389497   2.1431737   8.3889008   5.6524377
   2.4814975 -27.0844231  40.0378647   2.5014763 -26.0919323  40.0265694
   2.5707614 -27.2693863  39.0994911 -36.7011108  17.0939674  17.0995369
 -36.1722298  17.9410229  17.0640831 -36.2914314  16.6899910  17.8790112
 -11.8401365 -30.3267441 -24.6833725 -11.1421251 -29.8894958 -25.2091179
 -12.6086102 -30.3401623 -25.2793541 -10.4497366 -36.2502136  -8.1730413
 -11.2505074 -36.8289108  -8.1437273 -10.1513758 -36.3192291  -7.2355008
   3.3602087  -7.6169958  40.7731934   3.0237036  -6.7506671  40.6776619
   3.1446421  -7.9527693  39.8571243  10.7674303   3.6926765  23.0695820
  11.1322670   3.3035319  23.9025002  11.2975435   3.1367857  22.4646511
  12.6361332  -7.0135002  44.1259232  12.8107100  -6.6506629  43.2345123
  11.8589468  -7.6332231  43.9866142  -8.1082897   7.9665070 -42.5110130
  -8.8506136   7.4096265 -42.8208504  -7.3542352   7.4323468 -42.9490280
   9.5096788  42.6620407 -20.9617386  10.0217524  41.9144783 -20.5573578
   8.6346130  42.4901123 -20.4740963 -33.6793251  -8.3669338 -19.9625092
 -33.5160522  -8.5316286 -20.9119759 -34.4161491  -7.7243762 -20.0950184
   5.9374180  16.6911526 -21.3586311   6.0698771  17.2178955 -20.5539417
   6.8449016  16.3342209 -21.4641075 -27.6577187  17.6102886   4.6758394
 -27.5856476  16.7371807   4.1725860 -28.1815205  17.2617970   5.4265742
  41.5975533 -17.1854725  -6.6868477  42.0692978 -17.9243107  -7.0157104
  40.8266525 -17.5473137  -6.2403588  27.0544930 -11.6330643  23.4521580
  27.9872475 -11.4054441  23.7305698  27.0708942 -11.5041285  22.4721050
   5.7361112  48.4048882  18.9014015   5.0490141  49.0225143  18.5540543
   6.3302102  48.3248787  18.1306553  42.0301285  -5.7521372  -0.8508412
  42.9324226  -5.9019938  -0.8895721  41.9434586  -4.8444018  -1.1556019
  31.6531696  39.2834206   4.6251111  32.6169395  39.4680595   4.7576895
  31.4473763  39.7742805   3.8056619  10.9393110 -13.6492891 -46.0075073
  11.7718153 -13.3619509 -46.4146385  10.8254385 -12.9826059 -45.3111801
   5.3909860 -13.3488884  -4.0659647   4.9478645 -13.9010563  -3.4185920
   6.2536836 -13.7373152  -4.0319481   4.6543026   7.4082689  38.8680725
   4.5511971   6.4670162  39.1323204   5.4136438   7.5811696  39.4197426
   3.1578474   1.8920208 -18.1663017   4.1340218   1.7423267 -18.2748318
   2.8793387   1.3244517 -18.9341164  34.7801743  38.5236320  13.2236376
  33.9777832  37.9368973  13.2865906  34.6326981  38.8568459  12.3406296
 -24.3213158 -22.0075035 -23.4790974 -24.2582817 -21.9135151 -24.4445133
 -24.7539425 -21.1570587 -23.2041397  -3.8684618 -48.7363892  23.6979351
  -4.7860131 -48.7321091  23.8650455  -3.7126081 -47.8638268  23.2412663
 -11.6606703  -7.2065797  20.1539173 -11.3953533  -6.2812119  20.4313850
 -12.1040926  -6.9782491  19.3156300  17.6592388 -16.5368881 -12.4126797
  17.3562546 -16.7276840 -11.5429382  18.3461990 -15.8773251 -12.3042297
   8.6351471  37.0231552 -28.2884884   7.9685912  36.3350830 -28.6833820
   8.3745613  37.6882057 -29.0291290 -37.2116776 -18.3034630 -14.7404938
 -38.0146370 -18.8490810 -14.6637602 -37.5898209 -17.6028309 -15.3589039
  -5.6801305   3.7819242 -13.6837997  -5.6854644   3.5656140 -14.6420870
  -6.5446529   4.2686119 -13.6061811 -18.7951279  36.1331863 -12.8200350
 -17.8552151  36.3825607 -12.5281467 -19.2566109  36.0988579 -11.9486332
 -18.8300209  11.1333199 -14.4617996 -18.2286453  11.8238707 -14.8876791
 -18.8102074  11.5055876 -13.5419493  41.0773163 -12.7009029  21.2129402
  40.8444901 -11.7965479  21.4597912  40.2654953 -13.0352440  20.8011513
  25.4612751 -19.7539845 -13.0243158  25.4278202 -18.8243198 -12.6728687
  25.5531597 -20.3044624 -12.2255440 -11.0836592  -8.2768087  -4.2303991
 -11.2482347  -7.5593882  -3.6128378 -10.2572613  -7.9307866  -4.6381922
  18.1874275  -9.7984943   8.3288860  18.7745361 -10.1855106   9.0018530
  18.7467880  -9.1574697   7.8688040  21.7866344 -12.1354713 -45.0819054
  22.5782242 -11.7564859 -45.5710182  21.0492764 -11.6637573 -45.5586319
 -16.6256275  25.4932194 -15.5442533 -15.6723251  25.2742348 -15.5711193
 -16.6876373  25.6532688 -14.5249701   7.4174480  21.3119068  32.9225464
   8.1156569  20.7404194  33.3230247   6.7480187  21.3035316  33.6532249
 -41.5147247  10.2128630  30.1275654 -40.9822273   9.6906862  29.4536171
 -40.8857765  10.9243937  30.3362694   0.5497635  19.8206730  22.1686363
   1.4341595  20.2223969  22.2112236   0.7585911  18.9276199  21.7479916
  21.4622059 -36.9568291 -30.8163395  21.2913456 -36.0961685 -30.3558044
  21.9983807 -36.6051216 -31.6081600 -42.9920769 -10.8503065  11.9229126
 -42.9539757 -10.6137056  10.9877739 -43.2387123 -11.7654858  11.9098501
  27.3129005  -0.8069917 -33.5815849  27.1867390  -0.3800727 -34.4600296
  26.4808903  -1.3943594 -33.6908188  22.4967022  21.2461243  -0.9713097
  21.9219322  20.8744965  -0.2245828  22.0293293  20.8198757  -1.7431692
  19.6034164 -25.3307781  25.6144886  18.6403732 -25.2666397  25.9058914
  20.0389500 -25.0939579  26.4588184 -24.2519474  26.8128166  10.4176455
 -24.2529869  25.8234062  10.3546915 -24.5081444  26.9061794  11.3497248
 -35.0230598 -34.9631386  16.5865383 -34.4306107 -34.1476097  16.6354542
 -34.7604446 -35.3647118  17.4236412  -2.3629615 -29.7042294   5.8322716
  -2.3518438 -29.6687031   6.8289747  -1.7453182 -29.0519791   5.6378508
  -8.6914177 -45.4242821   1.5029253  -8.1517487 -44.6672859   1.8145880
  -9.5871716 -45.0105629   1.4815614  21.3687038  29.8758469 -24.4416695
  22.1839695  29.3897324 -24.5133038  20.9304714  29.6004620 -23.6481743
  28.2681732 -33.5005341 -29.5785465  28.0091419 -33.2797089 -28.6349945
  28.8737278 -32.7449799 -29.8288479 -32.6284180  -1.9623746  34.3159332
 -32.9666824  -1.3618256  33.6428299 -33.5079994  -2.4070871  34.5288124
  19.0439072  14.1818047  -2.0562654  19.9769516  14.2530813  -1.8073126
  19.1207237  14.4313002  -2.9785235  15.7794790 -16.7958279 -42.9869728
  16.5533791 -17.3300838 -42.6925583  15.6019859 -16.2685032 -42.2321396
   7.9596763  13.6804581 -17.9917831   7.3648019  13.4419212 -17.1973190
   7.4340057  14.3184633 -18.4854450 -11.5287628  18.4568863 -26.5355091
 -10.6351824  18.7353039 -26.5807285 -11.5821972  17.7040138 -25.9047852
  31.6358509  -8.5205870 -30.5340080  32.4562721  -8.4490337 -30.0126095
  31.4701920  -9.4832315 -30.6422043 -36.8591957 -22.7435646  -1.9945306
 -37.2246780 -22.4089108  -1.1528982 -36.6330299 -21.9260769  -2.4520102
   0.7702706  -0.8836551  26.0468521   0.6461158  -1.0820503  26.9934483
  -0.0485607  -0.3626593  25.8907890  37.7200279 -11.4784193  25.9432983
  38.7111931 -11.6960344  25.8099022  37.8498001 -10.5218277  25.9684410
  24.2601681  -6.8417807  21.8877144  25.2005749  -7.0744143  22.1270847
  23.8136711  -7.6696677  21.9870605  41.8515434  -3.5477564 -22.4735260
  41.2231750  -3.0386691 -22.9828300  41.8014946  -4.4267011 -22.8619709
   6.1580801 -13.8834305  43.4263458   5.1879086 -13.8849611  43.6143150
   6.1590786 -14.0091667  42.4555168 -21.2198296  30.8472366  -9.9777088
 -22.0389442  30.5396595  -9.5733271 -21.5571365  31.5986862 -10.5437489
 -30.4739990 -11.7821722  22.5228119 -29.7676907 -11.4710531  21.9443207
 -31.2114983 -11.6320457  21.8703785 -42.2903900  20.6098709  12.8007555
 -41.4563255  20.5792046  12.3481941 -42.3970871  19.6575966  13.1066465
  -3.6344757 -36.2969017  19.8194275  -2.9381604 -36.5422249  20.4241657
  -4.4037027 -36.5059662  20.3144703  12.2377691   8.2138090 -13.0697737
  11.4619436   8.5566702 -13.5446339  12.1266909   8.7576704 -12.2490482
  14.1375160  19.1856346   8.2664700  13.3198547  18.9274483   7.8984056
  13.8700523  19.8404617   8.9541721 -19.1329021  38.1802177   4.9887114
 -18.4260693  38.6867371   5.3028593 -19.7927456  38.1550903   5.7890153
 -44.3378220  29.4858837 -14.3962793 -43.8676186  29.4028263 -15.2806005
 -44.9867210  28.7848091 -14.4383373  15.9712639 -13.4405012 -33.9494362
  16.8052349 -13.0718060 -34.2639923  15.8044777 -12.9699621 -33.1689682
 -11.5896425 -26.1312065  24.5817833 -11.4370127 -25.2264729  24.5133228
 -11.1628647 -26.3970222  25.4441891 -25.4908581  10.4794521 -24.6306572
 -26.1025867  11.2174435 -24.4753361 -25.6872540  10.2784796 -25.5908489
  -5.5371790  36.8144608  -7.6301155  -5.3054161  36.3239365  -8.4376345
  -4.9873924  36.2995567  -7.0049191  28.7527847  13.4498329   0.9518452
  28.4334030  12.5280724   0.8810733  27.8757725  13.8964710   0.7699507
  15.6987505  -9.0377884  41.4531937  16.5838509  -9.3851728  41.7070236
  16.0743961  -8.2348986  40.9101067 -25.2800426 -25.4555397   3.4088144
 -25.7102699 -26.1151104   2.8353009 -24.6259174 -26.0018864   3.8527131
 -43.6713562   0.4557209  25.3364143 -43.3914948   0.5004968  26.2913265
 -44.0553322   1.3632741  25.1720581 -22.2650661  34.0901489   0.3435059
 -22.4456577  33.3639641   0.9099683 -22.9145374  33.9526672  -0.3920487
  19.5733337   8.0388842  10.4626970  19.7253551   8.7833929  11.0300493
  18.7714691   7.6504016  10.7757902   6.8151622  46.7665329  22.9474888
   5.8273187  46.6660728  22.8275394   6.8663845  47.7353516  23.0604057
 -28.5869122  -1.9367132 -34.5927391 -27.8938370  -2.1016037 -35.2353401
 -28.3813114  -2.5116956 -33.8422546   0.9571910 -14.9637861 -18.7747765
   0.7480086 -15.6993532 -18.1384583   0.1040347 -14.9872684 -19.2848015
 -30.6765709 -20.5642262 -27.2566872 -30.6226311 -19.8893547 -27.9279709
 -31.5575466 -20.9197273 -27.3547173 -31.2535477 -17.2161903  -8.3509312
 -31.6448898 -17.1665020  -9.2236948 -31.6612148 -16.4705753  -7.9131866
  -0.1573772   5.1400471 -23.0626488  -0.2741621   6.1271935 -23.1749554
  -1.0194335   4.8161674 -23.4514694  -0.5170691  38.8252258  22.6355705
  -1.1559467  38.2575531  23.0692959  -0.7713242  38.6688080  21.6751289
  15.3332233 -14.6189156  31.1687279  15.4538164 -15.6026163  31.2190304
  16.2720490 -14.4065056  31.1385288  25.8064175  24.9181480 -28.9227619
  26.5931110  24.5553303 -29.4384251  25.1315041  24.8626003 -29.5589657
  17.2955437   1.9587281 -31.3515911  16.5552120   2.1594374 -30.6947727
  17.8158112   2.7029870 -31.2951660 -22.5466175  28.9079266  26.0655727
 -23.2902107  29.4567184  25.6413517 -21.8538017  29.2303200  25.4268742
 -22.1099968 -17.6675301   3.0875807 -22.9977818 -18.0820007   3.2569087
 -22.4054165 -16.9119625   2.4966357  -0.7371796 -16.3988304  32.0641365
  -1.6736896 -16.2806149  32.2957382  -0.5934313 -17.4023361  32.1389961
 -23.0477257 -24.3658237 -25.5639687 -23.6765060 -25.0244694 -25.9143639
 -23.4627914 -23.5623779 -25.9242153   9.5846539   1.7900248 -26.2357750
   9.7505360   1.2796630 -25.4551392   9.3869553   2.6827989 -25.7926941
 -30.5600948 -10.6715488 -12.0759010 -29.8338737 -10.9505405 -11.4208012
 -30.2252884  -9.7512789 -12.2577581 -21.0493450 -20.6788464 -16.6551037
 -20.3337460 -19.9602737 -16.4618797 -20.4648132 -21.4464016 -16.6108875
   3.8317504  22.8618183   5.6687155   3.2846704  22.0502644   5.9076619
   3.3970289  23.4995766   6.1991901  14.3195467 -14.1984921 -36.0820999
  15.0648508 -13.7915707 -35.4943466  14.8439302 -14.1520643 -36.9393425
  31.5588493  10.7407169 -12.0555706  32.3559799  11.0641813 -11.5496578
  31.3186684  10.0040245 -11.4015055 -39.4527550 -21.4753551  16.6199379
 -39.3364449 -20.7944870  17.3264675 -39.1404457 -22.2779369  17.1075249
  39.9552841  16.9830341  27.7944832  39.6758041  17.6569443  28.4476452
  39.1159630  16.7398357  27.4197216   4.7269726  12.6905870  27.1130695
   4.3855433  12.2626505  26.3308525   4.2156935  13.5628309  27.0880928
  34.4141998  35.2604141  10.7955904  33.4959488  35.5773392  10.5278130
  34.8941002  35.7655716  10.1140366   5.5125113  23.5354557  12.6009865
   4.9801660  24.2330704  12.9579315   5.8415780  23.0556030  13.3603134
  10.4024878  -9.2883720  20.6614285  10.6835032  -8.9046402  19.8485889
  10.1057005  -8.4906864  21.1108913  41.9637260  -8.8300829  30.7770233
  42.9491844  -9.0315084  30.7026615  41.6727753  -8.8991280  29.8620567
  38.5749931  24.6206760 -18.2811794  39.1003876  25.3368168 -17.9460545
  38.9979591  24.5086536 -19.1659260 -33.8327904 -22.1198254  -2.1518176
 -33.7878990 -21.1603298  -2.2113764 -33.9189758 -22.3722668  -3.0880830
  -1.1850742  30.4009323 -20.2773838  -0.7810620  29.8336391 -19.5128269
  -0.4254077  30.4094734 -20.8264198 -38.4709969  -6.6275434  33.8205986
 -37.6135674  -7.0040374  34.1784554 -39.0800819  -7.3716159  34.0553474
  12.2547598  -4.8572116  19.4416542  12.4970884  -4.3863940  18.6558475
  13.1774998  -4.9538388  19.8363590   2.1048057  21.0061264 -29.8284588
   2.8358393  21.6611938 -29.8421192   2.2951567  20.5449448 -30.7221546
 -31.7338581  14.6547813   5.5084987 -32.1098137  14.0701561   4.8142171
 -30.9452438  14.1177282   5.7504411  16.4794865  16.8209095   6.5826082
  16.2589264  15.9573784   6.9475331  17.4812698  16.5883636   6.3590803
 -16.3541508  17.5295563   0.7620227 -15.8670244  17.9840317   1.5409824
 -17.1920872  18.1297646   0.8996700  21.6485939  -9.8938141 -19.9932156
  21.7809734 -10.8484936 -19.9932518  20.8806744  -9.7595234 -19.4441700
 -13.2734728   8.6268110  28.4656334 -14.2253170   8.4148235  28.2075310
 -13.4421730   9.3383474  29.0988083 -22.8812828  25.2545967   3.8034151
 -22.2952347  25.7968178   3.2012208 -22.8115025  25.7876968   4.5924802
  -9.6082850 -13.3454514  42.4654617  -9.7471800 -12.9974823  41.5594635
  -8.6551809 -13.0733490  42.6127586 -34.8174896  18.2249279  26.8824100
 -35.2364426  19.0719547  26.7729988 -33.9248848  18.3609142  26.5400047
 -16.4261570 -43.2019997 -16.0182858 -16.2316990 -42.4764481 -15.3681622
 -16.5010204 -42.6236420 -16.8724365   9.2017565 -30.4530487  10.1559343
   9.4576769 -29.9774055   9.3508139  10.0513411 -30.5701714  10.6428089
  -6.4167042  36.3555832 -27.1104527  -5.4428253  36.3684578 -26.9367332
  -6.6623545  35.9939079 -26.2281857 -10.6025438   5.6317849  -4.9374399
 -11.0848732   5.2657824  -5.7124739 -11.1290903   5.3775339  -4.2242017
  15.4783335 -23.4040375 -30.0305119  14.4591389 -23.4466858 -30.0565605
  15.6705275 -24.1217747 -29.4438877 -27.3794384 -11.4433126  -8.0400038
 -26.6935520 -12.0469379  -8.1180267 -26.9227352 -10.6570063  -7.6801043
   7.5225024 -15.7148123  15.5415831   7.4847503 -16.4861298  16.0777569
   6.9974761 -15.0559397  16.1207523   9.7726650  37.6972389 -26.0474091
   9.6002016  37.4649963 -26.9873962  10.0670815  38.6184273 -26.2233143
 -12.8489990 -39.0328140  -1.1710221 -12.2321262 -38.3328934  -1.0702716
 -12.2554502 -39.8130836  -1.0479466   9.1758242  38.2084885  27.2413750
   9.1523867  38.2821426  28.1872272   8.3085346  38.2073555  26.9640617
 -31.4561996 -24.3568916 -12.7902927 -31.3571568 -23.4655266 -12.4150572
 -30.9931221 -24.2467804 -13.6650038  30.6346359  -1.5822006 -24.1313515
  30.5545311  -0.7432559 -24.6622505  29.7914658  -2.0203993 -24.3977680
  -2.5503623  20.9384537 -36.0128708  -1.9458183  20.3136921 -35.5052299
  -2.1055963  21.0262394 -36.8400803 -12.1961985  18.2479687   9.1872292
 -12.6361713  17.4379120   9.6249599 -11.2863951  17.8799706   9.1863794
  10.6197224  26.0498180  24.1688442  10.5343351  26.0713768  25.1261520
  10.9053993  27.0170612  24.0364552  40.9780693 -20.3652534  20.9545250
  40.7300911 -20.6449013  21.8505802  41.5519142 -21.1592045  20.7341156
  13.7505960   1.9518557 -10.9143610  13.9340782   1.2441695 -11.5970249
  13.7166643   1.3694869 -10.1048660 -17.6596889  40.6023064 -26.0568085
 -18.6356926  40.5363274 -26.1934032 -17.5317478  40.2597122 -25.1876163
  41.3923378  24.9584560 -10.2107611  41.6654510  24.0870190 -10.3510599
  41.9394531  25.2647381  -9.4998817  40.2984047  24.0863800 -23.5762329
  40.7946472  24.6692123 -22.9325466  40.9377251  23.3439693 -23.6896629
 -11.3305779  14.2668571   9.1687775 -10.5113859  14.3118944   8.6298437
 -10.8868418  13.9798927  10.0358286  -3.6884019   1.5991665 -31.2534046
  -3.6676829   1.8540983 -32.1851578  -3.6022966   2.4873524 -30.8436279
  -2.7428546   2.0984669  28.3843784  -3.4173515   2.5379996  27.8415737
  -2.7120297   2.7090664  29.1629677  22.3232231 -23.3823833  -1.4519573
  23.0268402 -24.0506401  -1.1353513  21.5579948 -23.6636162  -0.9235761
  15.3046789 -19.8355999  26.3450832  15.3357964 -18.8671417  26.2916222
  14.4469509 -20.0078678  25.9369812  -1.5497853  -9.2807798  45.8751106
  -1.3828429  -8.4328575  46.3473854  -0.9640483  -9.8950748  46.3862305
  27.6215267 -17.1290340  12.1858158  28.2723961 -17.7923679  11.9756670
  28.2604542 -16.4526024  12.6080599 -23.8741665  25.0929527 -15.6568050
 -23.3456326  25.6235619 -16.2850361 -24.7310867  25.0789223 -16.1494007
 -24.5910797  26.8087158  18.4447193 -24.3468781  25.9503040  17.8877697
 -25.5653954  26.6754723  18.4903011 -39.3129501 -16.4084187  -4.9153266
 -38.3662224 -16.6292038  -4.8865294 -39.6037521 -16.7531567  -5.7799540
 -21.7532825  16.6828785  37.9592896 -21.7389336  17.6812134  38.0793228
 -22.6033173  16.6294937  37.4030457   5.3646531  -8.1165743  46.4216919
   5.2163968  -7.8932295  45.4775429   5.1792159  -9.0554142  46.4812965
  -9.0232773  34.1548119  31.1784782  -8.1289129  33.9242363  31.5596390
  -9.5132227  33.4413147  31.6495476  -3.6306410 -24.4170570   1.3751973
  -3.1906519 -24.1134071   0.5714397  -4.1656895 -23.6397896   1.6230749
 -29.3412533   2.9553037  27.6888885 -29.3593483   1.9944124  27.5234756
 -29.9102612   2.9718308  28.5444832  22.6091347 -18.4962692  -1.7201328
  21.9940224 -19.3220615  -1.7472123  23.3866558 -18.9319305  -1.3370191
 -25.7508965  11.0818977 -32.5689278 -26.4499893  11.6921778 -32.4104462
 -26.0303020  10.3528337 -31.9695263  16.7956886 -11.7941074 -50.5718765
  17.0601940 -11.4768610 -51.4174881  15.8987513 -12.1734028 -50.7506065
  12.3206272 -33.8986931  -6.7916360  11.5252466 -34.3298683  -7.1280737
  12.6518402 -33.4356575  -7.5463128  -6.3694024  26.9432240 -16.3359566
  -7.2309375  27.4206448 -16.3564568  -6.5409207  26.2651138 -17.0365467
  -3.7217851  -1.4526989  44.9406853  -3.3642843  -0.7168649  45.4527664
  -3.7524626  -1.0278933  44.0498657  22.6844158  -8.8011723  31.2707844
  21.7712975  -8.3958197  31.5252361  23.1397686  -7.9813967  31.0148430
  -8.0249872 -10.2356052  36.8473701  -7.3897233 -10.8813810  36.3543854
  -8.2375526  -9.5596495  36.1936226 -13.7194862 -23.7236252 -28.4582005
 -14.1535864 -22.8320217 -28.1814747 -12.9137917 -23.2900658 -28.8859043
  36.5843620 -30.9205894 -17.2641201  36.0631218 -30.8095417 -18.0768318
  36.2043152 -31.7010899 -16.8516235 -30.2481155 -31.3790035  -3.1117291
 -30.2615280 -31.4292908  -2.1077576 -31.0166836 -30.8229370  -3.2620459
  -3.7848556   0.2148175  24.0347176  -4.7797618   0.1056134  24.2084103
  -3.4981692   0.0928723  24.9443226  27.2387333  41.1268730  14.4738483
  27.0146103  40.9181747  13.5127735  26.6364918  41.9320259  14.5654650
 -35.6798897 -15.2230473 -29.9492073 -36.0917625 -14.3512125 -29.7162170
 -36.3981171 -15.6304922 -30.4757919  27.0941105  28.1787872   6.5896125
  26.2985172  27.9245033   6.0550776  26.6780567  28.8431149   7.1880970
  35.0472603 -19.6968842  29.3097858  35.8426476 -19.5465298  28.7395535
  34.4172707 -19.9585247  28.6451492  11.3560944  -4.0179949 -37.1377716
  11.7862091  -3.6368766 -36.3549118  12.1977987  -4.3618355 -37.5382004
  25.3053284  -0.8102498   1.5190154  25.7561607  -0.9644540   2.3419123
  25.5003872   0.1151119   1.3594260  -6.1290460 -10.1192627  -3.3809848
  -5.7757363 -10.7167587  -4.1284380  -6.8822370 -10.6932402  -3.0976846
 -13.6695585  12.4893131  41.9000092 -14.0630102  12.6543751  41.0355453
 -13.7523069  13.3770437  42.3449860 -29.2482033  -5.8561249  38.3805428
 -28.7425709  -5.4980321  39.1815224 -28.9357624  -6.8357406  38.5307312
   1.2574205   2.4696817  17.2317467   1.5725383   3.3641493  16.9096508
   2.0856140   2.0244532  17.3944244  -5.4051919   8.3968325 -47.9786835
  -6.0574770   8.1519308 -47.3201447  -4.7332363   7.6972432 -48.0008507
  29.8492317  18.2352524  19.0117912  29.0049763  17.8162518  19.2261162
  29.5194607  19.1183357  18.6930428 -11.2462330  21.5231934 -34.7477417
 -10.9139223  21.4103374 -33.7990494 -11.3910255  20.5524197 -34.9709930
 -33.0166359   2.6328015  19.4674358 -33.1448021   3.6097410  19.4310112
 -34.0097427   2.4326797  19.3069744 -30.2062435  -4.8390250 -32.2183266
 -31.1582146  -4.8740506 -32.2419853 -30.0328674  -3.9232273 -32.3126144
  41.2942886 -11.0977821  -1.5883892  40.5569687 -11.7425499  -1.4746898
  41.4181442 -11.1984224  -2.5742695  40.3082466  14.8034363  -8.8785782
  41.1782379  14.3595123  -8.7480268  40.5801010  15.6908512  -8.5865164
 -14.1499453 -18.9704723  20.7871056 -13.8148127 -19.2136803  21.6251621
 -14.6494398 -19.7614155  20.5129299  21.7764835 -30.4120922  27.6186008
  21.6457863 -30.1338062  26.7022991  22.0111866 -31.3535137  27.5332565
 -17.9710197  12.8652334  40.5363770 -18.2736053  13.1992292  39.6920624
 -18.7312431  12.2034893  40.6638107   9.5160570   4.5906334  41.0057259
   9.0266342   5.4118748  40.7294426  10.2918386   4.6937380  40.3551369
   9.1951408  29.4818726 -27.3701172   8.6921120  30.3763046 -27.2084904
   8.7155380  29.1802921 -28.1644707  29.6350040  19.0654182  24.0114346
  29.6756573  18.6657467  24.9211521  29.5037251  19.9972172  24.3027687
 -10.5467291 -32.3947601 -19.9866505 -10.9744968 -33.2836609 -19.9375572
 -10.9895477 -32.0306969 -20.7663651 -32.4227562  22.4779778  -6.9698782
 -32.6358757  21.9616623  -7.7895536 -31.6893444  23.0297909  -7.3289547
  11.4406967  -7.1654162  16.2883358  12.2825518  -7.3541460  15.7539568
  11.2957726  -6.2485375  15.8887482   0.4743830 -37.3590050  19.5800610
   0.3298938 -38.3430405  19.4343796  -0.2415134 -37.1900215  20.2132397
  15.9028873  43.2851753 -19.9961872  16.8560963  43.0539093 -19.8855057
  15.7461023  43.0742874 -20.8977604  -6.2172818  31.8082390 -21.3106213
  -5.3063421  31.8969517 -21.0786209  -6.2892947  30.8815041 -21.6465321
  38.1537437   7.5069728  17.3921490  37.4060822   7.5608130  18.0303230
  38.3863068   6.5531149  17.5065002  18.6821022  10.2185421 -13.9929523
  18.5612736  10.5391874 -13.0882597  18.0623035  10.7606249 -14.5136681
 -25.1159515  -1.6195086   8.7556210 -24.9775066  -0.6452854   8.6877737
 -25.6640644  -1.6186045   9.5529003  43.4705238  -9.9389029 -24.6492195
  42.9680214 -10.7699585 -24.3284206  42.8596497  -9.7173824 -25.3882694
  27.2215538   4.8058109 -38.0706139  27.0310478   5.1047850 -38.9636383
  26.9671631   5.6716495 -37.5831451 -11.1908798  38.6523132  24.8802052
 -12.0406160  39.1478462  25.1129131 -11.1932602  37.9860649  25.6079884
  -5.7350101 -10.4578924   6.7678690  -6.6242771 -10.1392832   7.0598116
  -5.8824420 -11.3983145   6.9186707 -20.8786030  -0.4371260 -27.4401169
 -20.0737476  -0.2540711 -27.0041580 -21.4783516   0.2127054 -27.0166759
   5.6077638  37.4122658  29.4809532   5.8765545  37.9486046  28.7102604
   5.3602257  36.5923271  28.9543896  -9.1057272 -23.3623219  17.5660572
  -9.1640358 -22.5274696  17.2155056  -8.6945305 -23.2373447  18.4638672
 -28.4991455  14.1559362  39.9010887 -27.9206581  13.7223673  40.5479660
 -28.5624218  13.4923544  39.1675491  29.7378597   6.6540279 -32.1799622
  28.9119682   6.8733530 -32.5498962  30.0690136   5.8162713 -32.5583611
  -8.0250559 -24.6496220  -0.2510512  -8.5870943 -24.1953163  -0.9142957
  -7.1551890 -24.2870865  -0.5509311 -16.6266060  12.8065023 -14.3901825
 -16.4750614  12.6819067 -13.4280920 -15.7329617  12.8889494 -14.7451620
 -32.8969574 -13.0960274  -0.7766480 -33.7640038 -13.3719711  -0.2814369
 -32.4715500 -14.0207090  -0.7652107 -35.5586815   2.7159190 -34.9424057
 -35.5006180   2.8759322 -34.0025101 -34.8715019   2.0556912 -35.0711861
  15.2580471   0.6826406  20.7659111  14.5757742   0.5621990  20.0145645
  15.9728708   0.1234031  20.3692665   5.6646123 -23.8770161  35.1334152
   4.7523718 -23.5666466  34.8931580   5.4334970 -24.4208412  35.9106636
  15.5968885  35.5470695 -20.0614872  14.7392569  35.3663712 -19.6583481
  15.2829361  35.6735764 -20.9759598  35.5038223 -11.3285618  23.6220360
  35.7884903 -12.2178230  24.0039635  36.4032021 -10.8778782  23.6117001
 -33.6554909 -11.0698309  33.3140182 -32.6903687 -10.9498234  33.1256599
 -33.8915367 -11.6168880  32.5424080  27.1299992  25.5340538  21.7325859
  27.2892914  24.9140701  20.9550953  27.4165440  26.3637524  21.2858124
 -31.4669514 -20.4042969  -8.4396954 -30.9777527 -19.8335876  -9.0244408
 -32.2028351 -20.6338825  -9.0770311  42.9508171 -23.0818977  15.0331812
  43.1904411 -22.8349533  14.1006536  43.8028679 -23.3756943  15.3616419
  -5.6956868  -2.3532245  22.0124855  -5.2983193  -1.8587625  21.2413807
  -5.9293041  -1.6216124  22.5596046  38.0923653 -16.5530796   7.1572647
  37.0931168 -16.5029163   7.1477208  38.2049904 -17.1527042   6.3547907
   5.3190050  -2.3358872 -43.9863129   5.4276857  -2.1586626 -43.0465431
   4.3288717  -2.1184738 -44.0698586 -25.6742802 -18.9295864 -31.6257992
 -26.2357311 -18.2576008 -32.0477028 -26.3425961 -19.4360523 -31.1074314
  20.4325333  -1.6783702 -27.0411053  20.4572926  -1.7361120 -28.0455055
  19.6721153  -1.0563527 -26.9581776   1.0818146  -9.9980173 -36.4773903
   0.6160367  -9.9213638 -37.3269882   0.3924928 -10.2992144 -35.8681984
  28.5881252  -5.5348983  36.3928337  27.8755150  -6.2101936  36.4793282
  29.2589760  -5.8742375  37.0421562 -14.5957556  24.3879929 -27.1049976
 -14.1043272  25.1600533 -27.4199963 -15.2857513  24.2914486 -27.7879658
 -29.7190933  20.5591354   8.4603853 -30.2798023  21.3027382   8.6722059
 -30.1553154  20.1811733   7.6983695  44.0491409   7.8801980  29.9728241
  43.3080063   8.4007158  29.6406460  44.3714943   8.2719870  30.7496700
  -3.9024100   7.6371007 -23.9139481  -3.8597064   8.5858984 -23.5982590
  -3.8815634   7.2243953 -23.0262547   4.8831706  29.3740673  13.9864101
   4.5725145  30.2280102  13.6360998   5.8988042  29.5737915  13.9571743
  30.8509159  15.4562073 -20.1236496  30.3711338  15.9690390 -20.8364964
  31.1139374  14.7179089 -20.7266884  -4.1745434   9.1498785 -28.8879948
  -4.9483323   8.9508848 -28.3066902  -4.1451049  10.0911360 -28.7064877
  24.0883865 -18.5053158  30.2352276  23.5874672 -17.6844788  30.4928226
  23.3731804 -19.1476326  30.2400932 -30.9105511  -0.8920612 -18.2021160
 -31.7912102  -0.7978755 -17.7592106 -31.2458286  -1.2482022 -19.0675316
  -1.9770921   8.3683119  37.6387978  -2.2431538   9.1935253  38.1498871
  -2.5926361   8.5864134  36.8593636 -30.0699387 -18.2961464 -23.4201050
 -30.9219818 -17.9772243 -23.7598209 -30.2221127 -19.2767506 -23.3516788
 -14.8042040   0.1482724  -6.1941147 -15.6264620   0.5522059  -6.4643073
 -14.7358971   0.5738261  -5.3042626  18.7684994 -21.1555252   7.0093794
  18.3429451 -22.0221920   7.0161099  19.6198654 -21.3334389   7.3885260
 -25.6270943  33.5405426   1.2855663 -25.7120342  33.3142548   2.2151141
 -25.5525436  32.6369858   0.9385130 -40.3179359   9.1217480 -33.0526924
 -40.9706421   9.3640308 -32.3484383 -40.9419479   9.2707224 -33.8234253
 -13.0903502  15.6757231  45.7617111 -13.8063726  15.0031137  45.9147148
 -12.5884523  15.4771585  46.5650330 -38.8051643  20.8850708  -8.5807810
 -38.1012993  21.4522743  -8.1845131 -38.3233032  20.7066994  -9.4176779
 -33.6551285 -17.9138813 -19.0790195 -33.2178459 -17.2064724 -18.5826092
 -32.8842506 -18.4498158 -19.3688335  14.7282858  32.9997406  13.3101854
  14.9027863  33.3784904  14.1714573  15.0981808  32.0504150  13.4550714
  10.2998047 -29.8867550  26.0747604   9.8918962 -29.5640411  26.9301338
  10.3893995 -30.8415985  26.2582569  14.9127817  28.5523262  25.2012310
  15.4406366  27.7655983  25.4217167  14.7595530  28.9611511  26.0739918
  28.8843136  19.6596966  -8.0604277  28.2213383  19.8601246  -8.7301950
  29.5958824  19.4069576  -8.6610556  -3.0100012  -5.0826468  10.5824318
  -2.1429141  -5.4110618  11.0418243  -3.5714829  -5.1392813  11.4068861
   1.4196173  13.4357634 -41.8644218   0.9418846  12.8005428 -42.3552704
   1.6317075  14.0635300 -42.5704803  -5.6061707   0.8262717 -26.3122997
  -4.6554461   0.5498529 -25.9951553  -5.3293076   1.4733937 -26.9797535
 -22.8253708  22.3652573 -31.6684475 -21.9165993  22.1313553 -31.5159760
 -23.0695763  21.7716732 -32.4074020 -14.0485029  35.0641899 -35.3170738
 -14.1731768  35.3977318 -34.4101486 -13.5209122  35.7713890 -35.7037239
  17.1017551   1.5447640 -28.3224106  17.9593716   1.8045661 -28.6605606
  17.3299980   1.0551791 -27.4931717  21.9533958 -23.1443501  39.9413338
  22.1231976 -22.7932758  40.8458481  22.0394020 -22.3430061  39.4465332
  38.6336479 -13.7643681  19.8606148  38.5445137 -12.8018417  19.7627754
  38.5895386 -14.0214729  18.8955345 -35.0212746 -38.0135612  15.7865858
 -34.4684868 -37.2338524  15.5014744 -35.7687035 -38.0157356  15.2269621
  34.5325661   2.4360681  -3.6882861  33.7056770   2.2677794  -4.1615996
  35.2001915   2.1492863  -4.3709993 -13.6532249  10.2683887 -52.6553802
 -14.1657600   9.5465031 -52.2728767 -14.2192516  11.0168753 -52.5559120
 -26.2014713 -25.9409695  -4.6507311 -26.3883858 -26.7968197  -4.2424850
 -25.9066296 -25.4450016  -3.8551135 -12.7906818  17.2621613   3.3497915
 -12.4911804  18.1444149   3.6794527 -12.5947218  16.7788963   4.2053599
   2.2669084 -40.9688835  19.2379246   2.5190809 -40.2166634  19.8715878
   2.9537215 -41.5259285  19.3175945  16.6692390  46.6097870 -17.2860222
  16.9000072  45.6449623 -17.3923893  15.6981831  46.5011787 -17.1680794
   7.4540839  -7.1184301  31.2113876   6.6227512  -6.7721558  30.8865204
   7.5714769  -6.6104960  31.9997005 -27.9077759 -30.4173088  17.0210495
 -28.0545063 -29.5737000  17.5092888 -28.7884216 -30.7908287  17.0524578
   4.3773518 -11.0818348  18.4413376   4.0082603 -11.6733999  17.7469101
   3.8346748 -11.4798126  19.2109013  -1.1059744  12.4182606   2.0602169
  -0.4040904  13.0348558   1.7355943  -1.0247513  12.5237417   3.0125949
  -6.7090731  15.1530857   9.4636106  -6.8135171  15.1507893  10.4116821
  -6.2475877  16.0023556   9.3033819  -5.9242268  39.0429535   9.3436975
  -5.1310258  39.0249634   8.8306160  -6.2849469  38.1451073   9.0958061
 -20.1677876  11.1020355  21.3614254 -19.2382641  11.1547918  21.6653481
 -20.4113045  10.1461344  21.5116634  33.3598404 -26.3574295  28.1828117
  33.2843590 -27.1801796  28.7444305  33.5093193 -25.7258148  28.9798985
   9.3014650 -27.3260841 -12.7501850   9.2047062 -27.8313999 -13.6174374
  10.1056871 -26.8243732 -13.0185366  13.2383232  36.4511909  22.1416378
  13.7076454  37.1844635  22.5772705  12.9154615  35.9805679  22.9290180
 -31.6770134 -26.6926823  -3.2315171 -30.6965332 -26.4448471  -3.3345859
 -31.6786327 -26.6296749  -2.2593305  10.7940006   0.6347574 -11.9792385
  11.2641850   0.8372053 -12.7998734   9.9498558   1.1269051 -12.1869850
  10.3049698 -11.4244175  16.5212402  11.1744528 -11.8417253  16.6610889
   9.8285580 -12.0193081  15.9836473  -9.8511705 -48.2592659  11.5754528
  -9.3018112 -47.4793282  11.3849039  -9.2796869 -48.7248039  12.3002043
  36.0321999  33.2423019   4.6957755  35.6326561  34.0580521   4.2926512
  36.6203918  33.5474586   5.3767977  29.5416222  -1.0737699  34.2101364
  30.2478447  -1.5558907  33.6662025  29.7944355  -1.4024578  35.1097221
  38.2226868  27.8982258 -17.3519611  38.2002106  28.0240765 -18.2825813
  39.1932678  27.7950668 -17.2152081  32.4928589  -4.6930966  15.2600985
  33.2697868  -4.6956449  14.6609478  31.9788952  -5.4869857  14.9470291
   5.7306633  -9.7597914  -5.0525355   5.8891621  -9.4030075  -4.1621561
   5.9718485  -9.0078335  -5.6577649  -9.3628349  26.0227699 -10.0672712
  -9.9297724  25.7022400 -10.8266640  -8.5464706  26.1782398 -10.5522995
  -3.0945466 -25.3281898 -28.6476879  -2.5376260 -25.9519844 -28.2124386
  -3.1969991 -25.7298508 -29.5134487 -27.3864594  15.7863255  25.2330475
 -26.8657112  16.4979267  25.6816845 -26.8808956  15.0339947  25.6120415
   4.3160219  48.2079697 -18.2994728   4.1737452  47.7068977 -17.5123730
   3.7131238  47.7888412 -18.9815655   6.4811158  -0.8957176 -25.1047382
   6.3216286   0.1165136 -25.1344643   6.3093481  -1.0644073 -26.0406246
 -42.4455490  20.8319950  -6.5539613 -42.2483826  21.7339497  -6.2437301
 -42.1515312  20.8391418  -7.4531927  -2.8269131 -42.2750053 -20.6036472
  -3.1723201 -42.3723450 -19.6594543  -2.1727512 -41.5330124 -20.3741188
   1.6000615  41.1380615  18.2982578   2.1622429  40.6305084  18.9123917
   0.8478997  40.5096474  18.1547642  37.4106216 -11.3890667 -23.6710052
  38.2828026 -11.6527004 -23.4134197  36.8983841 -11.7069893 -22.8860245
  27.3824501 -19.3736057  16.8065510  26.8356190 -20.0143700  16.3602486
  27.1806183 -18.5322208  16.3627625 -14.6599674 -41.9275894  -5.7407074
 -15.0011549 -41.6817474  -4.8570108 -13.8409386 -41.3188591  -5.8263488
 -34.4101410   0.5523814   7.1113482 -34.3962746  -0.3543100   6.8232250
 -33.8455009   1.0352088   6.5202298  11.9321098  11.0404167  19.7830753
  11.7322121  11.4359398  20.7007523  12.5726366  10.3408813  20.0455112
 -20.9566040 -19.8066120  33.1548882 -21.3295364 -20.1222324  32.3227882
 -20.6279812 -20.7095871  33.5402374  11.0502510   4.3011789 -46.2925453
  11.1687012   3.3712845 -46.4566612  11.1354628   4.6588764 -47.2005806
 -15.3828201  30.6219101   7.2355599 -15.5072918  30.3976498   6.3245234
 -15.2440071  29.7525272   7.6887093  21.7555294 -15.0044537 -36.4621811
  21.0796852 -14.8017883 -37.1329765  22.5599346 -14.8050909 -36.9899292
 -11.7357054  39.2605667  28.6098785 -12.1219711  40.1876144  28.5559349
 -11.0403442  39.3972931  29.2603207 -16.4637794  20.7082386  21.3495216
 -16.0994282  19.8671627  21.6255894 -15.6779737  21.1131783  20.8724918
 -26.7818069  26.0813236  32.5476685 -25.8660698  26.2305775  32.5423279
 -26.8558960  25.1917744  32.1558037  42.9755402 -21.1881828 -24.6963711
  43.1519775 -21.3921795 -25.6695461  42.4853821 -20.3054142 -24.9530163
   8.5711784  25.6924953  27.5566788   8.4909229  26.6628494  27.6902809
   9.4710789  25.5611649  27.8257599  -8.5975866 -32.3643761  22.0807800
  -8.2463169 -33.1818123  21.6809998  -9.5109119 -32.6592407  22.2731915
 -20.9556980  33.2602959  18.1126652 -20.0702724  32.8241425  18.0167313
 -20.7179852  34.0732346  17.6442318  19.1000557  10.2811699  -8.9335375
  18.5470219   9.4535866  -9.0020151  18.5228577  10.8767223  -9.3579807
  -7.2189069 -21.0215492   0.9933149  -6.6974344 -21.7587204   1.3949885
  -6.8186545 -20.2569752   1.4906899  15.2901869  10.5232544  41.2390251
  15.0525837  10.8609724  40.3798065  15.0553226   9.6031237  41.1822433
  26.3389874 -35.2347412  29.7035637  26.0348282 -36.0189323  29.2015228
  27.0008831 -35.6289139  30.2948437  26.3114643  -5.6192918 -43.2508163
  25.4517670  -5.6055880 -43.8044624  25.8205605  -5.9438429 -42.4257469
   2.3382802  24.6478405 -36.6473083   3.1219170  24.7461433 -37.1408501
   1.7556984  25.3565865 -37.0056458 -15.8602009 -40.2843132 -11.4259863
 -15.5399427 -39.4826622 -10.9752493 -15.6945572 -40.9420509 -10.6588335
  23.6191616  11.2580643   1.6610090  23.2685432  11.5742512   2.5678804
  22.7887669  11.3273239   1.2159673 -37.3721619  15.7539606 -15.8459835
 -37.9756737  16.2317200 -16.5593910 -36.8376350  16.5887260 -15.6590576
  12.3528595  -2.0171311 -20.8449039  12.1024456  -2.0859551 -19.9277306
  11.4351435  -2.1350262 -21.2688103   6.0696702  10.1447582  16.9278526
   6.6283422   9.4433746  17.2447605   6.7296524  10.6724396  16.3897915
  31.1613922   2.7874730   9.3666325  30.2234154   2.5198388   9.1894712
  31.2609005   2.4984984  10.2940245 -19.4654160   0.0077706  24.8672981
 -19.9834232   0.5525636  24.2561150 -18.6166058   0.4915679  24.9234905
   9.0715351  29.7270889 -21.6633434   9.0956516  29.6390114 -22.6294765
   9.2106552  28.8366966 -21.3713589  13.6322727  14.8224516  25.9154758
  14.4260159  14.4391022  26.3302097  14.0406981  15.4126711  25.3056812
   3.3007059  11.3749228   6.0840583   3.3884189  12.2036772   6.5458260
   2.5709097  11.5892839   5.4047956 -28.6175575  -4.9115405 -28.1096992
 -29.4544258  -5.4308624 -27.9977989 -28.9103394  -4.0042558 -27.9341316
  12.1338568   8.9078751   9.8116150  12.6423950   9.7437820  10.0243464
  11.8138351   8.6851263  10.6944208   5.1730065   9.8515167  46.7548180
   5.1596370   9.2676392  45.9031563   4.6924539  10.6297235  46.4205246
  31.4473305  15.5571203  25.8518353  31.6925259  16.4638672  25.8241196
  31.7965164  15.1737604  25.0754757  11.8183537 -28.3309612  20.1860390
  10.9125252 -28.7170925  20.0292854  12.3694649 -29.0532475  19.8111115
  28.6092663   0.2921461  -3.8596635  28.9673195   0.7871258  -4.6025367
  28.6340141  -0.6289651  -4.1243382   9.4732876   2.3648639   4.8717608
   9.1183023   2.5756183   3.9849470  10.4207382   2.4953227   4.7066541
 -19.5201092  20.2033558 -38.7651024 -19.7456722  19.9372540 -37.8162651
 -20.3418522  20.5867863 -39.0147133   9.0036383  -2.2165639 -13.4172220
   8.1625910  -2.1942873 -12.9737997   9.6000996  -2.1538749 -12.5922661
   4.5152264  31.3907356   5.0264850   4.8662839  31.7989769   4.1509089
   3.5913579  31.2257862   4.7195396   8.0764551  36.4571304  16.4944992
   8.6906109  35.7041473  16.3232193   8.3275595  36.6829414  17.4311104
 -39.2654533  -9.0083094 -26.9060154 -39.7447243  -8.2531080 -27.3356056
 -39.2061806  -9.6364670 -27.6135826  24.8239975  20.1214466 -13.4079828
  24.9540768  19.8027840 -14.3407145  24.8181267  21.0751305 -13.5441942
 -18.9499168 -36.0032387  13.2366877 -18.3961086 -35.9125862  12.4053040
 -18.4745178 -36.6895943  13.6502638  22.3929558  14.5492182  31.1026707
  21.5966339  14.0379763  30.8230667  22.0809040  15.4270506  31.3324776
  24.4700279  40.4713631   9.3102884  24.5749569  39.4497833   9.2514811
  24.7419109  40.6932907   8.4120607  -7.0856357   8.8312302  16.3474960
  -6.7659349   9.6135693  15.8888521  -6.5649853   8.1766071  15.8873672
  39.4538612  25.4706078 -13.5150900  39.8009262  25.4736004 -14.4341269
  38.7208138  24.8185806 -13.5539446  29.4884605  12.5544949   4.0462422
  30.1600456  12.2679520   3.4911454  29.8497238  13.0980263   4.7269111
 -20.3285370   9.3663082 -28.5562782 -19.3917751   9.5487251 -28.2135353
 -20.2765427   9.9503908 -29.3640575  35.1215706  31.9634972  15.4719496
  35.3098335  31.9421482  16.4577599  35.5633888  32.7331924  15.1860294
  41.7113266  -7.4122539 -29.7349949  41.5060844  -6.4273963 -29.8369198
  42.0490837  -7.6503325 -30.6082726 -13.0769196  35.1284332  14.6647015
 -12.7695436  34.7236366  15.5002327 -13.5644007  35.8839722  15.0575686
 -13.9381676  14.7871027  -3.0515637 -14.4856215  14.9655094  -3.8710310
 -14.2798376  15.6242571  -2.5550053   3.4946072 -36.0585022  -4.2079873
   2.8609273 -36.7073250  -4.5128679   4.2519317 -36.7225647  -4.0955095
 -19.2651787 -11.7653027   1.7478764 -19.3366680 -11.0805597   2.4333112
 -19.5864201 -11.1925879   0.9646510  42.7542419 -18.4811611 -22.1170673
  41.8409920 -18.5232868 -22.4426651  42.6023979 -18.6388416 -21.1664581
  17.5872192 -26.6663456 -30.9434566  17.8810730 -25.9493179 -31.5563622
  18.4919319 -27.0171413 -30.7531433  36.0131874  24.0460835 -18.0323524
  36.9078217  24.3748550 -18.1042175  36.1546478  23.0785542 -18.3337841
  24.8812447   5.1498408  32.1254578  24.2764244   5.8942127  31.9502239
  25.0240402   4.8024697  31.1799831 -36.6293945   0.0538771  15.8280659
 -37.2550697   0.7288448  15.4680014 -36.2510300   0.6157556  16.5660744
  31.8339958  11.6976547 -24.5409260  31.3498459  11.8808813 -25.3424644
  32.7215767  11.9878016 -24.7389812  34.9051666 -14.1988306  -6.6241589
  34.0768967 -13.7393856  -6.3233423  35.3053665 -13.6342707  -7.2270341
 -40.8340454   8.2991314 -22.4570999 -41.2122841   7.5851731 -23.0477219
 -41.1244278   7.8824973 -21.5862179  30.7664051  19.5800781 -12.9636374
  30.2469139  18.9060421 -13.4844780  31.5306625  18.9673557 -12.7166758
 -21.9201736   3.0072026  15.1457443 -21.5059986   2.0966101  15.3996353
 -22.8658886   2.7641742  15.2604589  12.7960787  21.1393623  14.1563311
  13.6834774  20.7017937  14.3092222  12.4833183  21.2557526  15.0441456
 -30.2448502  16.1166477  10.1630955 -30.7581425  16.8304710  10.6220198
 -29.4360828  16.0412788  10.6520500  22.2511692   4.0062475  17.5853367
  23.0708809   4.0765548  18.1567631  22.5426731   4.5645432  16.8139553
  -3.1663449  11.5811977 -46.8378868  -3.9902556  11.3813887 -46.3768387
  -2.8430057  10.7226801 -47.1343307  16.7597828  11.3032951 -23.9909992
  16.4221325  12.1458950 -24.3426666  17.7120209  11.4486113 -24.2747631
  27.3690548  -1.2411710   8.8464975  27.8068352  -1.6343651   8.1081705
  28.0881996  -0.9482350   9.4317465 -10.2901087   2.2011514 -14.9538412
 -10.8251133   1.4163730 -15.2574100 -11.0050631   2.8659768 -14.8540735
   4.4650450  37.3090057  11.6459293   5.3244381  37.3526535  12.1818981
   3.8623991  37.6536293  12.3689671 -41.5229263 -25.5898838   6.8771243
 -41.3332214 -25.9235802   7.8005743 -41.4226227 -26.4182434   6.3645334
   2.8556399 -17.8711662  30.3659210   2.2477686 -17.0933247  30.3912792
   2.2486546 -18.5819874  30.6877956  28.7450314   0.2590132 -38.2203712
  27.9740524  -0.3646801 -38.4055824  28.9287968   0.5266384 -39.1809807
  -6.1846728  24.1707859  16.3421116  -6.4582243  23.2246017  16.2906322
  -7.0341830  24.6882839  16.4770622 -42.8620834   2.3252957  34.9462051
 -43.5391388   1.8938401  35.5118980 -42.3092079   2.7352321  35.7168694
 -12.8583555   3.8845975 -30.5896645 -12.0783758   3.6106572 -31.1167545
 -13.6041498   3.5861051 -31.1765079  16.1150837  44.5934906 -14.0800486
  15.1396894  44.2256088 -14.0690632  15.8842916  45.4988251 -13.8319674
 -18.2507133 -34.8301582  20.5481949 -17.4683971 -35.3095436  20.6878109
 -18.6216965 -35.2183189  19.7235241  -3.3533332  28.5944157   7.4915056
  -2.5346508  28.0566635   7.7594857  -2.8853018  29.1827278   6.8726559
  21.9755001 -18.5608273  14.1288462  21.8880787 -17.9724121  13.3998871
  23.0102119 -18.5455360  14.2564831  19.2116108 -15.9265995 -47.4392242
  18.7012901 -16.2166672 -48.2314148  18.5236549 -15.6986456 -46.8159714
   6.0126128  -9.0646172  49.9492722   5.8781848  -8.2023630  49.5247192
   5.3874612  -9.0776052  50.6684265 -35.3229370 -23.7939930  -8.5775604
 -35.6492386 -24.7205391  -8.4608755 -34.5010605 -24.0041199  -9.1301270
  39.5365639  19.2546654 -26.0815601  40.5075417  19.0451164 -25.7986107
  39.0625000  18.5234413 -25.6796455 -40.0137596  -8.7571468 -15.0344009
 -39.5773888  -7.8713851 -14.9423656 -40.0351028  -8.9883556 -14.0891171
 -30.9084320   5.6631608  10.4817200 -31.3073654   6.5302563  10.4298992
 -30.0252323   5.8572173  10.9018011  18.2930527 -27.6944885  10.4865494
  18.9220657 -27.0320530  10.1458797  17.6153812 -27.1239243  10.9164896
  25.6695385  32.3825836  13.0784206  24.9003849  32.1288033  13.5607109
  26.2320595  31.5607033  13.0793085  -7.3495898  21.7441540  16.0156956
  -8.1768770  22.2257729  16.2059441  -7.7203307  21.0224609  15.4533844
 -36.7572365   4.6188469 -12.2526493 -35.7996521   4.9371185 -12.3813839
 -36.5887947   4.0794768 -11.4402275 -14.4555635  -5.6813602  41.5199127
 -14.5134115  -6.2195272  40.7559166 -13.9852715  -6.2545223  42.1721268
  31.9484615  -9.2999010  19.3037338  32.5087738 -10.1481066  19.4021130
  31.5988235  -9.3725386  20.2143402 -11.9815607 -28.7353706   1.7981442
 -11.3493643 -29.2075996   1.2623235 -11.8010426 -29.2038860   2.6386721
   6.6458168   5.5579982 -20.8737869   5.9541855   4.8434248 -20.8317356
   6.0926995   6.3633504 -20.9761314  31.3311157 -15.2021694 -31.1302910
  30.8201694 -15.0777206 -30.3261108  30.7912350 -14.7161570 -31.7916374
   1.4977732 -19.4047546 -18.4716187   1.5706047 -19.9150162 -19.3047733
   2.2871103 -18.7805443 -18.6126499 -32.5369949  10.7500572   6.4215732
 -31.6776333  11.1750174   6.8108974 -32.4294777   9.8413181   6.7627749
  -7.7127581   9.4854879 -22.9584141  -7.1684413   9.3880167 -23.7801304
  -7.1921215  10.1547194 -22.4587402  -8.5800743 -43.9471703 -22.8846340
  -8.7206450 -43.8602486 -23.8483982  -9.2606936 -43.4129562 -22.5598564
  -6.7942390  -7.4732928 -43.7342949  -6.0243006  -7.3223643 -43.1718674
  -6.4059911  -7.4074912 -44.6198044   5.2960243  13.5637417  43.4325905
   5.7359324  14.1523037  44.0980911   5.2471719  14.1350803  42.6542320
 -19.2555141  -6.8410187 -10.9984961 -19.1947727  -7.6496706 -10.4311142
 -20.1575603  -6.5995884 -10.6754436  11.0942192 -15.4936790 -18.8214912
  11.2531395 -15.3633156 -19.7384396  11.7799597 -16.1835518 -18.6605606
 -30.3873329  16.2467384 -22.9513149 -29.8047352  17.0140495 -22.7957745
 -31.0720520  16.3853588 -22.2561302 -37.1831551  -3.2825382 -30.0129051
 -38.1168404  -3.2790258 -30.3057957 -37.1607933  -4.1886735 -29.7093964
  21.4389820 -10.2531052 -22.8362350  22.0835133 -10.9617529 -22.6769123
  21.4901867  -9.7752771 -21.9785957 -15.6176357  21.2907333 -40.4495354
 -14.6830149  21.4213524 -40.7085114 -16.0257511  22.1337814 -40.8059006
  14.0376968 -23.6045856 -32.9546242  14.9420424 -23.9792233 -32.8280716
  13.5006781 -24.1611805 -32.4086685 -26.8146076  35.2882538 -23.3394203
 -27.7157936  35.6868019 -23.4812450 -27.0599251  34.3819618 -23.1609478
 -23.1619873  14.0822020  25.8872986 -23.1553020  14.1531467  24.9610519
 -22.9506855  13.0958128  25.9496670  -3.4462199  16.1823826 -14.3274355
  -3.0544934  17.0363388 -14.0978346  -3.2861650  15.7110815 -13.4647474
  18.4228535  -9.3288679 -49.9127884  18.8659782  -9.9671774 -49.2348709
  17.8540783  -9.9931545 -50.3737411 -16.7554455  -7.9255242   6.7577610
 -15.8586493  -8.0561352   6.5381899 -17.1138592  -8.8379364   6.7731900
   1.2690691   1.1539685  -8.5001125   1.4552515   0.8365928  -9.3657007
   0.3748342   0.7513166  -8.3278551  -5.4448538 -25.1416245  12.3360996
  -5.3349557 -25.4771538  11.4653597  -4.6939764 -25.6148949  12.7681875
  24.5163174 -35.8197289 -11.6589842  24.5448704 -35.4052238 -10.7874136
  24.4266720 -36.7500954 -11.3986969   8.0787659  -4.7917924  -0.2078625
   8.5632410  -5.5689445  -0.5279692   8.7920456  -4.0745792  -0.1535901
 -19.5381737  12.6356297  44.3514099 -19.3017712  13.0594530  45.1879883
 -18.6789169  12.8236418  43.8377953  -2.5935087   0.1965308   4.2493024
  -2.8215730  -0.6474238   4.7045736  -1.9394017   0.5643183   4.7709031
  16.2430267 -15.8354053 -18.5191860  16.0245628 -15.7295046 -19.4865494
  16.1817856 -16.7633533 -18.3885212  29.5853729  -6.4224839 -18.4753399
  29.8898373  -5.6004934 -18.0312634  29.9371471  -6.3717756 -19.3558655
 -40.8187180   2.8037009 -27.1587315 -40.8945198   2.0754750 -26.5305672
 -41.6744232   2.7077048 -27.6569748  14.0052223 -22.7397728  14.1027212
  13.7328720 -22.1142197  14.7417059  14.9147511 -22.9612999  14.3624201
 -28.8357506  -2.5781193  -0.2041150 -28.6719398  -3.4329782   0.2318583
 -28.7717628  -1.9133414   0.5577539  12.0461407 -30.4559288  22.7624741
  12.1089773 -29.5427361  23.0061417  12.3334513 -30.4101467  21.8167973
  35.7474442  25.7484398   8.8238125  35.4687233  24.8306866   8.5002050
  36.6189842  25.5887794   9.1249018 -26.2146511 -27.4819355  17.0018864
 -25.2517910 -27.5114079  16.7833118 -26.1513367 -27.7934437  17.9492531
  32.8794861  -2.2463548  13.8366709  32.4865723  -2.9881117  14.2465334
  33.8127785  -2.2914135  14.0284939 -42.4448662 -14.1123095 -20.7820015
 -43.2556839 -14.6239595 -21.0132294 -42.2388458 -13.6573887 -21.6108952
 -17.6966686 -26.5676098  23.9818687 -16.8804379 -27.0780334  24.1181774
 -18.2635365 -27.1184711  24.5536423   6.2555790 -38.7750397  -6.9261909
   7.0341015 -39.1896935  -7.3974776   5.8858519 -38.2966118  -7.6933546
  -9.7935734 -24.8261261 -20.0021439 -10.2773628 -25.2348156 -19.2611046
 -10.3779278 -25.1048279 -20.7190952  -2.4930882 -29.2385101  18.8103848
  -3.4120216 -29.1934261  18.3811226  -2.7807457 -29.1225491  19.7185059
  39.4412766 -25.2784405  -3.8552063  39.8288536 -26.0611629  -3.4041727
  40.2529411 -24.8582325  -4.1257448 -29.5739460  31.0995522   3.0973768
 -29.0251389  31.8960857   3.4115384 -30.4665527  31.4117317   3.3796809
  -1.5704861   1.2143760 -48.6360741  -1.2675606   1.7999452 -49.3080406
  -1.1367922   1.6086367 -47.8285675  15.2384119 -31.9941692 -27.5480976
  15.9700041 -31.8942776 -28.2008781  15.0145702 -30.9796696 -27.5605888
   8.8130922   4.3764734  33.7215538   8.9810410   3.9477072  34.6370583
   9.7033796   4.8160481  33.6384277 -20.6733208  -3.7848084 -42.4303436
 -21.5645180  -3.3728650 -42.3206139 -20.9987202  -4.6711950 -42.7208481
 -36.0597649 -26.1387482 -13.0724401 -35.2486038 -25.6368160 -12.9761438
 -35.7506523 -26.9343014 -13.4781704  32.9197578  13.3464985   7.0618186
  33.7489586  13.3120632   6.6179957  32.7513771  12.4421949   7.3391199
  28.4339123  19.7045650 -27.0328064  28.4440079  20.6438274 -27.3043098
  29.3317432  19.4287262 -27.1765804 -36.7813911   4.9310842  -3.8900123
 -37.2141228   4.5608692  -4.6983290 -37.6074944   5.3944125  -3.4897125
 -24.9393845 -44.1149406 -11.1841316 -24.3593121 -44.4551239 -10.5077448
 -24.3384399 -44.1847191 -11.9723330 -11.5105658   4.1646867 -34.8758888
 -11.1465282   4.9205408 -34.2844849 -11.4714928   3.4861012 -34.1935806
   3.5705078  15.0364990  27.2923794   3.2377443  15.7671318  26.7324200
   3.4311268  15.4132833  28.1765213 -28.0432568   1.3225800 -25.9584026
 -27.8923931   2.1906734 -26.4001904 -27.0379829   1.0708170 -25.7980614
  15.6276541  -2.7888117  -9.1669445  15.5847540  -3.4311125  -9.8836775
  16.5957603  -2.5461311  -9.2903891 -26.3213940 -37.0964127   7.0466509
 -27.1132908 -36.5488052   7.2761927 -26.5940456 -37.4375877   6.1892786
 -14.3817062   0.0420092   9.3074427 -15.0647287   0.2875828   9.9517717
 -14.5467567  -0.9194225   9.1692524  25.2477665 -13.7316284  27.7705803
  25.5283756 -13.4605446  28.6609993  24.9077625 -14.6133976  27.9985886
  35.6815681 -12.5654144 -21.6317616  36.2033958 -12.4761562 -20.8008518
  34.9113426 -13.0413170 -21.2808399  25.7402287   5.8154163 -23.8107681
  25.8546009   5.8947153 -24.7875805  25.4251118   4.9137969 -23.7605190
   7.8938169 -42.9612961  22.3863068   8.7563791 -42.4848328  22.3068390
   7.2823329 -42.1346245  22.3136864  -8.6246042  26.1668472  -2.6578567
  -9.1033201  26.5957794  -1.9302772  -8.6899776  25.2341957  -2.3603110
   1.2140694   7.4910583  40.7160683   0.7987520   7.8482909  39.8359070
   1.8355110   6.8409429  40.3181839 -23.6730785  -2.8603053  33.6187363
 -23.5134525  -1.9018797  33.3177299 -24.3624229  -2.7248375  34.3592148
  20.8651409  16.8127975  36.3282738  20.0997276  16.2905693  36.6526031
  21.0891285  16.2734852  35.5231171  38.4645042   9.3514814 -32.0692596
  38.4226112   8.3801546 -32.1385574  38.9715385   9.4595222 -32.9293900
  27.2594204  10.9415779 -15.6760435  27.8904305  11.5870323 -16.0218925
  27.2743988  10.2421217 -16.2591820  32.2181816   5.5239196 -30.2376289
  32.0149803   5.0482121 -31.0593147  31.7276974   4.8985238 -29.6015453
  18.8325615  35.5507584  -9.1186256  18.8040257  34.7400322  -8.5592146
  17.8886509  35.7883873  -9.1132307   6.7170348  37.2913361  13.1203957
   7.6005068  37.7727013  13.2226429   6.9981818  36.3543358  12.9742327
 -16.8084774  14.2715683 -43.6710243 -16.2364769  13.4797201 -43.7589302
 -16.7995243  14.3983316 -42.7229576 -35.4160919  -0.3077763   0.9089916
 -34.8495598   0.3908250   0.5364521 -35.4194183  -0.0753092   1.8205441
  40.6175957 -18.0139008  13.7536335  40.6480675 -17.0989342  14.0981684
  41.5354080 -18.2972202  13.9708815  32.2721138  -4.0231533  -9.0756025
  31.3746052  -3.6693070  -8.7369585  32.7185974  -4.1128988  -8.1963472
   7.0098028  45.5659447   0.1318685   6.6177325  46.4413147   0.1784198
   6.2374864  45.0040245  -0.1518814  42.2059326 -27.0742397   2.0582259
  42.4327660 -26.2621288   2.4945042  42.8435097 -27.7154369   2.3937993
   3.5661619 -28.2309799  -7.9264417   4.0178251 -27.5514641  -7.4333615
   2.9387090 -28.5817432  -7.2340903  33.2451324 -10.3360023  14.8213253
  33.0906906  -9.7295580  15.5949860  32.6474457  -9.8136721  14.1928024
  30.9303188 -13.3457222  20.0702496  31.4581509 -14.1409941  20.3205070
  31.6591778 -12.7209711  19.7558880 -33.6326294   2.0069804 -18.5039749
 -33.2360840   2.2491760 -17.6370964 -34.5690689   2.2426975 -18.2955379
 -10.8997288  27.9362659  -3.4841304 -10.1763515  27.3785934  -3.1967928
 -10.5674429  28.8275928  -3.2245457  14.4232788  20.6176300  29.6958218
  13.5718479  20.5967865  30.1199608  14.2280884  20.0997334  28.8792152
  34.8683014 -19.3286934  -2.2906969  35.6798325 -19.7105656  -2.6303413
  35.0084534 -19.5846615  -1.3253955 -21.5504189 -23.2817001 -31.4334621
 -20.8808136 -22.7789536 -31.8917046 -21.3961525 -22.9002037 -30.5627861
  40.8204536   4.4061308  12.9528847  40.0152283   4.9102888  12.8974743
  41.4789886   5.0865946  13.1237984  -6.6658411  36.9401779   7.5940700
  -6.3195200  36.1439972   7.9867048  -5.9844627  37.2060547   6.9757700
 -23.2498379  34.9300079 -26.1162739 -23.0126877  34.7312126 -27.0239029
 -22.5168438  34.4566917 -25.6792126   4.4800000   4.0046191 -41.9169159
   3.7933197   4.5040164 -41.4152565   4.8486118   4.7845125 -42.4129410
   2.2442536  17.8909473 -34.0128746   2.3540211  17.0888672 -34.6649818
   1.2826012  17.8385429 -33.9654121   3.0173669  28.2431545   6.6348567
   2.9204476  29.0722446   7.1473641   2.1703405  28.2631531   6.2225971
   5.0313172  17.3826332  -3.2607577   5.3431320  18.3428879  -3.3196025
   4.1903210  17.4765129  -3.8262939  34.9961357  10.9305382  23.9236565
  35.7417412  11.4162025  24.3570633  35.3173027  10.0120468  23.9754696
  16.2317562 -33.7802124  26.5142422  15.9693069 -34.6780014  26.4745827
  15.5432577 -33.2777481  26.0283318  -1.4938015 -36.3059502 -14.7611952
  -1.5541210 -35.4297905 -15.2610340  -1.2247752 -35.9070396 -13.9380579
  41.2886963 -11.4176769  12.7870770  41.4131966 -10.8827782  13.6033869
  40.3673286 -11.1427860  12.5773563   9.5120173  43.8065300  -1.2403631
  10.0383949  44.0123100  -2.0664773  10.1943865  44.0493317  -0.5884079
  36.3519630  -1.8188714  36.7948990  35.4981461  -2.3433087  36.9907913
  36.9665489  -2.3577116  37.2902908 -27.1800346  23.1796169  -9.3690166
 -27.7791500  23.1588917 -10.1414795 -27.4571323  22.3042850  -9.0073233
  23.8832664  31.2807255 -26.8088379  23.0157166  31.5858917 -26.4908524
  24.4394531  31.3149204 -25.9747772  24.7875137  -7.1179557 -13.0513582
  23.9993229  -7.2573800 -12.5565147  24.7230015  -7.8543305 -13.7308321
 -33.7306213  -4.9562192  14.4904957 -33.9387817  -4.1684613  15.0248642
 -32.9026833  -5.2719660  14.9148035  36.8042946 -13.0899248  -3.8493562
  36.1011848 -13.7317486  -3.9527757  36.4210777 -12.2976942  -4.3174148
  -3.8138926 -28.9485512   2.5603333  -3.1640136 -29.3921776   3.1925414
  -3.8022697 -29.6087761   1.8618574  11.2494717 -27.2773628 -25.2705460
  10.6658688 -27.8798370 -25.8324757  11.5867558 -26.6743965 -25.9562759
 -26.1894379  13.2981815 -42.7106705 -25.9876423  13.8113718 -41.8610191
 -26.9850388  12.7790880 -42.3532219  -5.4251099  -6.9772325 -41.4708023
  -5.9172711  -7.5941234 -40.9096184  -4.6665907  -6.7965946 -40.8672295
 -13.8761053 -25.8606548   6.1398344 -14.4677391 -25.2268200   6.5493450
 -14.4479523 -26.2269001   5.4104271 -13.9594612   5.5075703 -48.9603233
 -13.0161142   5.2662578 -49.2459908 -13.8368921   5.4986024 -48.0384140
  -0.4054887   4.9659061 -31.9165783   0.1114429   4.9712610 -32.6854744
  -1.3269271   4.7570701 -32.1684875  13.7626324 -39.2372589  -2.5072546
  13.3572817 -39.9281883  -2.0023088  13.2271824 -38.4394989  -2.2803075
  27.4185715  24.0501595 -23.7838421  26.9011097  23.6931286 -23.0165024
  26.9996414  23.5088177 -24.4754257  32.8712082  38.3935661  10.7094259
  32.5894775  37.8427925  11.5150747  32.1263885  39.0658150  10.7170763
 -26.8243275  -9.7848597  14.3756781 -27.3825264 -10.5703659  14.6050043
 -26.7566643  -9.9562092  13.4286785   4.9369345  33.1371956 -11.4966183
   4.2712240  33.6979942 -12.0036840   4.9324665  32.3440475 -12.0492582
  -8.9471693  20.3958378 -45.9294891  -9.5858212  19.8895206 -45.3316994
  -8.7352991  19.6925735 -46.5843582 -18.0443020 -29.6895714  17.8147869
 -18.6079445 -29.2877979  18.4631348 -18.2220707 -30.6541882  17.9054737
   4.8285422 -10.5854445 -11.5101662   5.4891796 -11.2304850 -11.8032799
   4.0693789 -11.1974564 -11.4334002  24.2681427  14.5009861 -30.5361671
  24.9173832  14.1161489 -31.2024918  23.4877758  13.9699011 -30.6793613
 -24.6323395  24.7261848 -25.4106960 -25.2016239  25.5342464 -25.3204517
 -25.3354187  24.0648537 -25.6277103  28.6280422  21.4518871   7.8390017
  29.5080376  21.1899090   7.4235458  28.9762688  22.1618004   8.4766912
 -13.9615021 -29.4243240  11.9819870 -14.5900106 -29.0784683  11.3302736
 -14.6581030 -29.8894176  12.6107464  22.1315842   0.8479184  30.5186520
  22.2052422   0.2850756  29.7545280  21.1929436   1.2277855  30.3617172
 -29.9870987  -2.7597919  32.4626083 -30.4807529  -2.2187476  33.1191559
 -30.7616634  -3.3234398  32.1633949 -18.2010403  -3.6050558  -8.1898813
 -18.5606422  -3.8710456  -7.3618197 -18.8894997  -2.9788222  -8.5305519
 -13.7130480 -50.6811409 -10.1767263 -13.9800758 -50.2394180  -9.3344297
 -12.8719921 -50.2129707 -10.4014940 -15.8417320  10.2283001  42.8821030
 -15.5333033  10.4266510  41.9659767 -16.3520451  11.0484238  43.0980568
  19.3718739 -38.8297195  25.8611603  19.7028866 -39.1796303  26.6752911
  19.1168785 -37.9056778  26.0857487 -30.5900688 -40.3162651  15.7454042
 -30.9226341 -40.5105820  16.7184219 -31.0525227 -41.0534477  15.3359585
 -32.3296661  11.4973793  18.1524849 -32.4206848  12.4899235  18.2847519
 -33.0021133  11.1989107  18.8191414 -26.7683697 -38.7764664  -9.7597466
 -27.4700050 -39.2560349  -9.3183146 -26.3914547 -39.5095139 -10.3430777
  23.1593895   4.1963878  14.8772669  22.7966290   5.0790334  14.8923855
  22.8062191   3.8939903  13.9455624  -2.1824923  38.3304710  -2.6498475
  -3.0030501  38.3448753  -3.1866007  -2.3095868  39.2123642  -2.1849225
  17.9103165 -33.0951881  28.7048416  17.2863483 -33.2300453  27.9970646
  17.6976738 -33.8853073  29.2387276   3.7137880 -31.8381691   3.3281910
   3.8626924 -31.2888699   2.5507424   4.5990214 -32.1442947   3.5386422
   6.5677724  19.6400261  36.2236099   5.9756455  18.8771782  36.1986885
   6.0892076  20.2285595  35.5480728 -34.2770004  16.3386765 -21.7413750
 -34.5507393  17.1604080 -22.2342148 -34.1690445  15.7363930 -22.4941292
  24.2834721  30.5667973  15.6096077  23.6918869  31.0113869  14.9903173
  24.0321388  29.6018429  15.3888025  27.0827808 -11.7668009   8.6532831
  26.6501541 -11.1222858   8.0368814  26.5104103 -11.5708895   9.4428806
 -33.7519875   0.1194956  18.1952057 -34.3902550   0.9074675  18.1053867
 -34.0152512  -0.1635416  19.1132450  20.0451775  -5.4039569  38.7531281
  19.5082169  -5.5511980  37.9267998  19.5015736  -4.7187648  39.1375580
  16.1607437  20.1800938  18.6768169  15.2033176  20.1515446  18.4760208
  16.0447445  20.1710453  19.6796875 -42.2097168  20.9378872  19.0251026
 -41.7292824  21.7701969  18.8371601 -41.7160263  20.6637745  19.9048672
  31.2674809  -0.9784893   6.5316148  30.7896099  -0.3199656   5.9826555
  31.5932598  -1.6008441   5.8612890 -17.6807880  26.9020863 -36.4185638
 -16.7184620  27.1289978 -36.1615028 -17.5410919  25.9100018 -36.2432137
  -9.0547295  -1.3867818 -27.8685379  -9.1992350  -2.1071808 -28.4468250
  -9.5397568  -1.6537383 -27.0642452   6.8295565  30.7887611 -20.1959190
   7.6414118  30.6095600 -20.6643620   6.9847288  31.7613201 -19.9752464
  -4.0335407 -21.1572495  -8.0111513  -3.0854449 -20.9444675  -8.2102470
  -4.0197906 -21.0577965  -7.0340033  24.1712933   5.3016553 -35.8325729
  23.6239414   4.8715420 -36.4833870  23.8140163   4.8701110 -35.0063744
  38.8386002  32.1615906  12.4140635  39.7133369  31.9463501  12.8699112
  38.8856163  33.1675949  12.5079575 -13.7354536  -5.0959988  34.9954796
 -12.8890905  -5.0367670  34.6222229 -14.3518314  -4.9274449  34.2721291
   6.9986095  -9.7646618 -31.1394081   7.4615965  -9.1186314 -31.6991501
   6.1067262  -9.3707047 -31.2459202  20.6456833 -29.6500969  -6.7874999
  19.7615280 -29.7885380  -7.1466699  20.6146049 -28.7338142  -6.6015739
 -33.3459396   3.4231720 -28.5244923 -32.7713966   4.1137080 -28.8653641
 -33.1534615   2.7388687 -29.1769676  38.6124077  11.1064358  27.2007866
  38.8511925  11.8366871  27.7880497  38.0648842  11.6098108  26.5401917
 -22.7136784 -14.8009825  26.9407368 -22.4307041 -15.5264883  26.2852669
 -22.2205086 -15.0905046  27.7077084  37.3243256 -16.9715729  -2.8515587
  38.1338120 -16.9678593  -3.3892274  36.6304741 -16.9132156  -3.5147417
  34.4431381  13.8423548  -0.9371495  34.4979820  14.2470064  -0.1018855
  35.1320610  13.0677471  -0.8053567  34.7447548 -32.9432335 -18.3750744
  34.5678291 -33.8951607 -18.0860901  33.9910812 -32.4850006 -18.0023842
   8.0228376 -14.6172476 -42.9708214   8.8211823 -15.1574621 -42.9323654
   8.3425951 -13.7321568 -42.7459259 -14.6528168 -14.2434235  15.6187010
 -14.3668394 -14.9997702  15.1558790 -14.7800846 -14.5646362  16.4828892
   7.1618195 -20.7064095 -37.6202698   7.5410471 -19.7800407 -37.7937393
   7.6815138 -20.9263630 -36.8406525  -7.4654150 -10.2259398 -30.6581650
  -7.7537303 -10.1366158 -31.5875359  -8.0024137  -9.5628719 -30.2050800
  28.0751858  -5.7529922  -1.2016952  27.6043224  -5.0207930  -0.7094979
  27.6869869  -6.5841713  -0.9368147  14.7910585  -3.2536919  29.6560307
  14.2852449  -3.7177866  28.9290848  14.9204779  -2.3999801  29.3034897
  12.1768122  44.3725700  -6.6777301  12.1189880  43.6931648  -7.2887235
  12.3238487  43.9383850  -5.8139849   1.2043465 -27.6322498 -35.5045357
   1.7439053 -27.9974842 -34.7486267   1.6727715 -26.7925186 -35.6058922
  -5.2270746 -43.1169510  10.3535986  -5.6968465 -43.8551216   9.9386263
  -5.9195423 -42.4917030  10.5196552  -3.0643122 -10.3222761  30.6410751
  -2.3219471 -10.2809067  29.9592266  -3.4303014 -11.1934204  30.3690166
 -14.4929276 -22.7624893 -10.7872982 -15.4337883 -22.5160789 -10.6029577
 -13.9743385 -22.4542637 -10.0382862  28.2189198   6.0563598   2.0884435
  28.1559849   6.8246703   2.6976254  27.7456589   6.4024782   1.3168436
  25.1234627  26.2291794   5.7093787  24.8876171  25.4479771   6.2695127
  24.4296989  26.8618660   6.0004106 -43.2311172   6.7895260 -17.6468925
 -43.7635536   7.5314002 -17.2279415 -43.9420128   6.0885682 -17.5235615
  37.2275085  13.9698648 -25.5980511  37.2448730  14.8766460 -25.9745770
  36.9269600  13.4658089 -26.3617516 -10.7037249   9.7440062   9.3860226
 -10.4969730   8.7770891   9.4154015 -10.7045279   9.9206419   8.4191017
   7.2804556 -28.5681286 -28.0144329   7.0750852 -27.6767044 -28.4602242
   6.9825392 -29.1524601 -28.6869049   4.2819676  20.7874985 -26.5025368
   4.0517292  21.7303696 -26.7832146   4.2096782  20.8834839 -25.5230370
 -25.2654037 -25.0045834  -2.0858831 -24.7692394 -24.2907696  -1.6379093
 -26.1654015 -24.6331749  -1.9921793  23.8444729 -16.7542057  39.1981697
  23.9088688 -17.3653793  39.9805946  24.4241810 -16.0452957  39.4940681
 -35.2299309   9.9002466 -37.8834724 -35.1198730   9.2449617 -37.1590500
 -34.3033066  10.1690483 -38.0446053  32.2463989  14.2157326  -2.8718848
  31.8708858  13.4214907  -2.4181836  31.8468304  14.9287443  -2.3269122
  25.5526123 -28.1983242   4.8360734  26.1136284 -28.9599037   4.5407262
  24.7370567 -28.6346512   5.0170298 -24.1183338  -4.3487639  16.2215061
 -23.7373753  -4.3435373  15.2964087 -24.6014404  -3.4627695  16.1219845
   0.6527890 -33.0157089  -3.4881675   1.5221711 -33.3420067  -3.1329432
   0.8112851 -33.2343826  -4.4456940 -11.4241238  11.9560900  39.2527504
 -11.4181499  12.9057903  39.1438065 -12.1547070  11.7013178  38.6237259
 -14.4763031 -39.4376717 -15.3225689 -13.8084259 -39.9515839 -14.7851038
 -13.9738092 -39.2245293 -16.1273556 -15.5503225 -20.4246292 -34.1769295
 -15.2354298 -20.0518990 -33.2931557 -15.3058338 -19.6497402 -34.7337074
 -10.9155560 -47.3068008   7.2197738 -10.9045181 -46.5443611   7.7581501
 -11.3955040 -47.9807510   7.7182240  27.0720959  17.7259369  18.8866329
  26.5531082  17.6004486  19.6811867  26.7559948  18.6023426  18.5574608
 -30.3440208   4.9408374 -33.3557472 -29.9963493   5.8290453 -33.0694809
 -29.5653667   4.4234390 -33.0885582  10.8441992  34.9444275  15.9154520
  11.7364616  34.7686996  16.3332882  10.8579741  35.8905373  15.8142071
  28.6687851 -15.7776031 -21.0526428  29.2943554 -15.2915592 -21.5850182
  28.4038124 -16.5152512 -21.5520668 -16.8220997  34.4211273   3.1236086
 -16.1704159  35.1120224   3.3945937 -17.6735153  34.8415146   3.5816164
  38.7197990 -27.0300198  24.8478642  39.3545151 -27.6426620  25.3093891
  39.3469887 -26.3864765  24.4629116  28.5463562 -11.1688700  15.9247713
  28.9470539 -11.7594910  16.6517010  27.6489639 -11.5831184  15.9041958
  35.6328926 -27.9717064 -12.8852797  36.5723152 -28.3026066 -12.8087301
  35.4064636 -28.2402916 -13.8032265   5.4598970  44.2586098   5.5094366
   5.5283213  44.8842201   4.8085623   5.6422606  44.7837334   6.3154192
 -18.5366821 -19.7621403   8.0363512 -19.3717899 -19.6496506   7.4904084
 -18.9204464 -20.3415680   8.7710915  22.4824085  18.9797726  28.9622288
  22.4072037  19.9178619  28.6401672  21.7135963  19.0570259  29.6253662
  -3.2934573  37.7947159   8.3360939  -3.2303841  38.0972672   7.4279108
  -2.8509350  36.9208221   8.2236700  36.8976593  12.5484018  11.0308266
  37.0566063  11.7073393  11.4843025  36.8951530  13.2204742  11.7252855
 -22.5511074   1.0713867 -35.2501411 -22.4793530   1.1599965 -34.2234001
 -22.2492847   1.9823422 -35.4858322 -33.3385582   4.0240583  -0.4725517
 -32.7595177   4.5137873  -1.0527904 -34.1488113   3.9469554  -0.9171623
 -20.6433887  30.0061874 -25.1485291 -21.4150620  30.0970612 -25.6649208
 -20.5937042  29.0433922 -24.9651566  33.3950615  33.4654961 -20.7219276
  33.5766563  33.0958328 -19.8291187  34.1574249  34.0599327 -20.8683720
 -32.1966476   3.5771103   2.2218142 -32.8438835   3.0200505   2.6660872
 -32.7316780   3.9459679   1.4788580  14.4622774  -6.4868436  46.0144272
  13.7838831  -6.7112160  45.3439102  13.8839397  -6.6090307  46.8377647
  23.4471703  45.2760429  -4.3656726  22.9038734  44.5489998  -4.6744604
  23.1756535  46.0181618  -4.9377894   1.2774861  -1.6118900  35.0349236
   2.1997893  -1.3947711  35.3780022   0.7187890  -1.1294434  35.7207336
   6.8732448 -12.1468258  18.6595821   6.7634239 -13.1113596  18.4585609
   5.9665666 -11.8167057  18.7169724  -8.9809971 -38.3975258  16.2757168
  -8.2542477 -38.3813591  15.5766659  -8.5342493 -38.4521790  17.1198940
  -0.2469362   0.6996799  19.7952728   0.7174678   0.6516002  19.9704323
  -0.4412998   1.5505830  20.2420673 -30.0695763   7.4577556  16.8153591
 -30.5831451   7.7391772  17.6075687 -30.6905575   6.7284465  16.5328541
 -17.6895561 -48.3534622  -5.3553281 -18.3203640 -47.6197929  -5.1525402
 -18.2917004 -49.0736656  -5.6133666   0.3580049   3.1686559 -21.3537846
   0.7896572   3.8891973 -20.8078957   0.2388425   3.6722763 -22.1509266
  33.1742783  11.7265682 -16.3838100  33.6733170  11.7996511 -15.5557547
  32.6032867  12.4835606 -16.3071690  10.4868393 -29.8568840  37.2121010
   9.6869307 -30.4244652  37.1647263  10.0719147 -29.0857983  37.6133766
 -24.2097549 -15.6719999 -22.4841404 -23.5801563 -16.4206333 -22.5031567
 -24.5988503 -15.7449427 -23.3875256   1.5332309  -5.9936895 -48.8464661
   1.6871748  -5.7297311 -47.9139061   1.9893193  -5.2745490 -49.2743568
 -17.8387241  25.3959160 -27.0481186 -17.2680340  24.9412975 -27.6853657
 -18.2322598  26.1186008 -27.5459538 -18.1478062 -25.4222050 -30.2184277
 -17.1858730 -25.4030209 -30.1652946 -18.3163471 -25.4446163 -31.1812878
  -7.7765875   6.0069561  13.9431181  -6.8547978   5.8640909  13.7107077
  -8.2171898   5.4786482  13.3035412   4.2227454  10.0285835  21.4129410
   4.8732142   9.3279161  21.1104221   3.6468365   9.4511795  21.9942570
 -38.4264793   4.7204690 -27.4953308 -39.2607994   4.2935700 -27.3239288
 -37.8068924   4.0343132 -27.6983948 -13.0867319 -45.6486320 -12.4135456
 -13.7430706 -44.9378357 -12.4563198 -13.5452833 -46.3378563 -12.9261284
   6.2409248 -30.1544342  28.3010902   6.1563625 -31.1001720  27.8954239
   7.2013078 -29.9818058  28.1975956  -7.4269476  15.9356794  12.3687201
  -7.8865108  16.5991135  11.7458820  -7.4137316  16.4553814  13.1927624
  26.8730965  15.7859287 -13.5932961  26.2783413  15.9472532 -12.7783546
  26.2638855  15.2055922 -14.0943336 -38.1611824  -5.6430960  -3.6497507
 -38.7885933  -5.0434017  -3.9989328 -38.3200226  -5.4910779  -2.6626337
 -34.7888374  -4.2231226  -4.3312402 -35.1134949  -3.7114637  -3.4920349
 -35.0625534  -3.5962658  -4.9771471  35.5670853   5.0502553  14.0067291
  34.8330727   4.6829667  14.5746069  35.7388916   5.9110932  14.5151014
 -41.5026016 -13.0328455  21.1725082 -41.7289505 -13.8929844  21.4247627
 -40.7477798 -12.8148470  21.7420311  41.4098320 -31.4292946 -16.1105938
  41.1507721 -31.0944099 -15.2347984  40.7570992 -30.9881439 -16.6926060
  -9.5654287  -2.0465856  -7.5585232  -8.6932726  -2.2174141  -7.1461759
 -10.2042542  -2.1735864  -6.8668442  21.8167076  18.8972874  26.2411633
  22.5675030  18.7824574  26.8491898  21.1636982  18.2513504  26.5971832
  -5.5756068 -14.6302538 -13.6997490  -5.2323112 -13.9870567 -13.0627480
  -4.8030968 -14.7089281 -14.2792463   3.6283207 -12.9267282  34.8032913
   3.2109118 -13.1079969  35.7165298   2.9387579 -12.1878319  34.5447960
   3.6525142  11.5996256  24.5358906   3.8329859  11.9064016  23.6525478
   2.9937823  12.2453747  24.8268433 -12.4350948 -24.7476559  -0.6723083
 -13.3419886 -24.4417648  -0.4874368 -12.6095161 -25.7774124  -0.5671139
  -7.8461967   0.5885876  42.0625229  -8.1509533  -0.2775232  41.6792946
  -8.6846046   0.9556524  42.4156075 -29.0895576  20.3129940 -17.7189980
 -28.7194118  19.4694958 -17.9121494 -28.3181915  20.8641338 -18.0950603
 -11.0658426 -23.0911522 -10.4833860 -10.8806267 -23.1945171 -11.4525442
 -10.1279688 -23.1023388 -10.1435852 -28.4503212  -5.3227148 -22.7570839
 -27.7886028  -6.0046816 -22.3830166 -28.3226337  -4.6088042 -22.1090813
  37.6822662   4.8016691  35.7191086  36.8252220   5.2205076  35.9752769
  38.2310715   5.6316147  35.5461922 -11.1876917  12.7500725  30.3334332
 -11.8592739  13.4632416  30.5487900 -10.6541805  12.6895046  31.1300755
  -3.2370496  35.3702698  16.3517303  -4.0637236  35.4633980  16.9049892
  -3.2346399  36.3173981  16.0457306  11.9899025  44.5713425  18.8610840
  11.8305254  44.7028770  19.7732105  12.0745478  43.5801773  18.7694492
   5.6293201   5.0714726 -32.5532455   4.9603724   4.3287830 -32.5613976
   6.5030456   4.5947757 -32.4748306  15.6536341 -13.6611738 -38.3598595
  15.6262007 -13.9783220 -39.2629433  16.5308857 -13.2878494 -38.2652245
 -21.2081795 -44.4257660   2.2522044 -21.2567272 -43.4784431   2.4239874
 -22.1054993 -44.6089020   1.9064635  10.7459860 -20.1795216  13.8162670
  10.9966669 -19.2073650  13.6590433  10.2162685 -20.2775803  12.9911575
 -11.0698538   8.5566082 -37.7348213 -11.9731588   8.7157412 -38.1628304
 -11.1748419   7.6748557 -37.4406662  23.8186092 -17.6525631  -7.7065306
  22.8491516 -17.4028683  -7.7613640  23.8286667 -17.9067974  -6.7787223
  14.6708097 -24.0503216  20.7375565  14.9974146 -23.6582985  19.8899193
  15.3155098 -23.6674595  21.3939133 -18.7318802 -11.5036983  -5.5841637
 -18.3692150 -11.5720615  -4.6656461 -18.1536427 -10.8323374  -5.9549360
 -16.1085052  19.9385910  35.1714172 -16.5005550  20.8034630  35.3897552
 -15.2890129  20.3095303  34.6689796 -35.1939812  -3.3371279  34.1736031
 -35.4330215  -4.1152916  33.5477524 -36.0724678  -3.1570079  34.5984726
  31.7137909   3.9389491  31.0371590  31.2622280   4.4544249  30.3115749
  31.1430130   3.1537209  31.0264435 -13.1209545   4.5889049  11.6386290
 -13.7195854   4.9616714  10.9470043 -12.4309053   5.3252516  11.6847582
  36.0263786   7.7450981 -26.9769707  36.3753433   6.9881253 -27.4574299
  35.2347183   7.3268991 -26.5772076 -24.8042812  16.4767933  32.5012779
 -23.8384457  16.6561337  32.6128731 -25.0509529  17.3763161  32.1385002
   0.8769404  19.3136997 -26.9412518   0.7741103  19.9573174 -26.2593365
   0.7266774  18.4472847 -26.5558357  -0.9020414  32.7948265   6.1080284
  -1.1600947  33.4023895   5.4083834  -0.0793397  33.1715469   6.4885859
 -14.3345642  36.4793129   2.8901024 -13.9249477  36.0265312   3.6671102
 -13.5204229  36.8414955   2.5281641 -38.3043518 -10.0766134  19.3403072
 -37.6235924 -10.7174988  19.5976200 -38.2589302 -10.1768198  18.3842201
 -11.6570358 -19.5905228 -36.4271164 -11.2400293 -20.3330688 -36.8581047
 -12.4334135 -19.3934822 -37.0509567   4.9477787  32.6917191 -16.6632843
   5.3061152  31.7968960 -16.6285172   5.8012686  33.2561874 -16.6469250
 -10.4005585  -5.9802403  46.6175117 -10.5094061  -6.5092669  45.7737808
 -10.1695862  -5.1399555  46.1805305 -42.1904182  31.3874016   8.5827932
 -42.4276505  31.7066307   7.6736650 -41.5629425  32.0538139   8.8903255
  -8.9152403  14.4822035   8.0028887  -8.7615013  14.8446884   7.0916133
  -8.0364866  14.7442856   8.4385681  14.6167908  28.1393185 -29.2332916
  15.5444984  28.1025200 -29.2977962  14.4704676  29.0593281 -29.5531826
   8.9767818 -33.8431854  10.4123487   9.8858442 -33.4923973  10.3879805
   9.0653543 -34.7700882  10.2131815 -37.9437294  -4.0224848  34.6210747
 -38.4471893  -4.3317432  33.8424454 -38.1013794  -4.8001642  35.2284279
  -9.7947350 -21.5554695  33.7842522  -9.7467623 -22.0699100  34.6392632
  -9.4274759 -20.6664543  34.1170273 -32.2517204  -3.4788113  28.5032806
 -32.8567696  -4.1595826  28.0778637 -31.5386448  -4.1208768  28.8092136
  22.6610374   4.7842722  -7.1713381  22.5733700   5.3816934  -7.9724050
  21.7296638   4.4362550  -7.2389188   2.9892135  15.9460764 -11.4774494
   2.1536348  16.3484879 -11.8957262   3.5859396  16.7211227 -11.5449276
  13.9676676  36.1833229  19.3069897  14.0004234  37.1353683  19.1544914
  13.7094526  36.1949501  20.2511501   0.3306717 -40.3068810  14.1100550
   0.6708003 -39.7496300  13.3802204   1.1702907 -40.3829651  14.6084423
   2.8841546  30.0439606 -10.4431629   2.5893347  29.1898460 -10.0875645
   2.2566485  30.6808586 -10.1500006  23.1355457  26.6578312 -26.2811661
  23.6156464  26.1871166 -25.5697784  23.8404331  27.1989346 -26.6703415
 -43.6323318  -8.4872770  15.7530537 -43.5799789  -9.4402761  16.1675663
 -44.3827209  -8.1620960  16.3400364  -3.7776098  11.8090830  11.8811588
  -4.0521932  12.5600281  12.4874792  -3.1135623  11.3608446  12.3516159
 -16.7187767  -8.1647005 -17.4340744 -16.3924294  -9.0853310 -17.6147652
 -16.7592735  -8.2613258 -16.4678268  12.8595734 -10.3370209  28.4493332
  13.7239456  -9.9887009  28.3071537  12.8733892 -10.5610323  29.3966885
  12.0691729 -12.1748362  44.3166389  11.5051804 -11.3873320  44.3189583
  12.8354177 -11.8078356  43.8182831  12.2446213  44.2919655  21.8694191
  11.6974449  43.9552231  22.5869427  12.2089415  45.2673759  22.0880566
 -28.1825886  -6.6330428  14.0818720 -27.3256245  -6.7215643  14.5706520
 -28.7168312  -6.0668387  14.6524401 -15.9521074 -12.7729902 -26.5223122
 -16.0842533 -13.0845222 -27.4676895 -16.8889732 -12.6175852 -26.2495403
  12.5273275 -14.8486853  23.1386204  11.6538296 -15.2399025  22.7687569
  12.1035347 -14.0908823  23.6123447  21.3883991  -5.4784846  25.6605282
  22.2033100  -4.9795103  25.6693325  21.4536362  -5.9146876  24.8127213
   2.6481280  -2.1764071 -26.7980556   2.7712610  -3.1200049 -26.7578011
   3.5236475  -1.8989846 -27.1228676 -39.7159348  14.2936907  16.9835567
 -39.4087524  14.5456724  17.8970184 -39.2206383  14.9603949  16.4162903
   9.7007446 -16.7952442  42.4105606   9.2982531 -17.6853905  42.5070457
   8.9911995 -16.2610588  42.8847313  -1.8338352 -37.5938950  21.5093899
  -0.9688055 -37.5231438  21.9384060  -2.1757934 -38.4392929  21.8591347
   6.6874700  20.1153431   4.4368839   6.3244405  19.3616409   3.8660588
   7.2796345  20.5292969   3.7420015  27.9704247  31.2852974  -9.0596495
  27.8213921  30.8459473  -8.2275019  28.5445175  32.0549698  -8.7967272
  39.7852821   5.6747961   9.2404718  40.4745674   5.0001616   9.4505491
  39.0354042   5.0413547   9.0096617 -35.3270111  10.3814363 -19.2790680
 -35.2494431  10.8664360 -18.4544659 -35.1136513   9.4706068 -19.0373631
   0.6469002 -18.0572376 -35.8590202   0.8613464 -18.8817768 -36.2932320
  -0.0710990 -17.7822762 -36.4829979  -5.9260154  18.0277443   9.0163240
  -5.8982606  18.2902622   8.0759497  -5.2509775  18.6299496   9.4046049
  34.9901161  17.5216904   5.0626407  34.0421677  17.7752266   4.6429949
  35.1346626  16.7372055   4.4240227  -5.6608696  36.3940125  25.5210075
  -6.1451898  35.9398270  24.7728558  -4.7592716  36.1069984  25.3406334
   8.7587719  27.3017807  20.9182377   9.3892555  27.6937256  21.5548439
   9.3465147  27.5034828  20.1167374 -23.5249176  13.5243788 -27.9824181
 -24.1675739  14.1966419 -28.3788834 -23.9722023  13.4490566 -27.1200256
   8.2927551  25.5238285   3.0884697   9.2136726  25.3029423   3.3642733
   7.8052402  25.1550140   3.8859057 -32.6478004 -15.5726166 -24.9627209
 -33.4951401 -15.8971863 -24.8788643 -32.6583824 -14.9074945 -25.6787376
 -31.1377869 -38.1368446  10.3607674 -30.2262554 -38.1316376  10.7599955
 -31.0823040 -38.9655876   9.8371563  32.8831482 -14.9590206   8.2292643
  32.1197586 -14.8442612   8.8231592  33.2509193 -14.0222406   8.2186766
 -26.7264843 -32.6275711  18.9662209 -26.6031017 -33.5322380  18.5764694
 -27.0113468 -32.1187325  18.1987572 -12.9166851  11.9228344 -46.2228241
 -13.7434807  11.9944630 -46.7966385 -12.3498783  12.4118233 -46.8345261
  11.9088726  20.1086349 -10.5310049  12.6879196  20.2739353  -9.9980183
  11.9620209  19.1612911 -10.7274170 -43.0161629  -1.0243244 -15.3489676
 -43.2434349  -1.9504857 -15.3022509 -42.5760193  -0.9092050 -16.2168560
  24.0028114  11.0141993 -38.2407913  23.7917042  10.8858318 -37.3184509
  23.6162853  10.2564354 -38.6727409  -8.3359013  41.5498390  21.9273758
  -8.7582674  42.0910950  22.6257343  -7.5535030  41.1904602  22.4956360
   6.3557525  19.8296890  30.7830849   7.1218228  19.6826878  30.2341728
   6.7620106  20.5275631  31.3674088  17.4019852  10.1153584   6.4773502
  16.5160484   9.9534998   6.7919183  17.8432560  10.1606226   7.3721733
   7.9102631 -10.9196281  21.2996464   7.8845649 -11.6500101  20.6121788
   8.4584761 -10.2830353  20.8319664  33.0586548   8.5100260  15.0531702
  32.8073235   7.5606213  15.0756493  33.0969162   8.5696049  14.0611954
  -1.6854126 -15.4081039  15.6521845  -2.1777892 -15.5532370  16.5295353
  -0.9714031 -16.0756664  15.7432785  -2.9666114  31.3954411  -3.3226202
  -2.4408526  32.0987129  -3.6740625  -3.1465669  30.8517189  -4.0717230
  -7.9170299  20.8217812   6.2452989  -7.1163621  20.3057308   6.5979977
  -8.4365025  20.0556927   5.9612746 -30.7810440   0.7187383  -0.3534196
 -30.2633915   1.3396578   0.2471417 -30.4460106   1.0958357  -1.2212055
 -18.6633797   2.5122821 -32.7291794 -18.2960663   1.7369020 -33.2596931
 -18.9322186   1.9951286 -31.9363766  -4.3241186   2.8179271 -42.1031609
  -4.4245572   3.7454689 -41.8391533  -5.2154479   2.4407859 -41.8290100
 -31.6604290  -8.7320042 -15.5570946 -31.5500507  -9.5925817 -15.0673590
 -31.8861065  -9.1033525 -16.4635372  -9.1425819   5.8894625 -24.0069809
  -9.0494184   5.0268369 -24.4500809  -9.2248230   6.4743805 -24.8653259
  21.7392750 -16.8980350 -39.2554817  22.6352158 -16.4908562 -39.0778046
  22.0292397 -17.8202877 -39.4835587  26.2168007   5.6794443  20.9171772
  27.1379032   5.6452050  21.2895050  25.9739113   6.5310850  21.3043709
 -14.2147751  41.2545204  -3.2451081 -13.5712137  40.5754356  -3.0007486
 -13.8011665  42.0535736  -2.7646062  -9.2090912  29.2040596 -19.8323307
  -8.7763157  30.0813026 -19.8018608  -8.8984642  28.8443470 -20.7117386
  14.1144867   3.7820504  -7.1615033  13.3444805   3.3472118  -7.5744596
  14.8485279   3.1192930  -7.3372340 -27.5250015  32.8831902  13.4939070
 -26.7996159  32.2904625  13.8273954 -27.0005779  33.7485161  13.5372000
  29.3481407  -3.7125583 -17.3949337  28.8360977  -3.2351172 -18.0401955
  28.7279282  -3.7284157 -16.6422462  21.0303288 -21.1426525  29.2150345
  20.2864094 -21.8187771  29.3789349  21.0727139 -21.2883205  28.2315521
  -9.0295067 -23.8237362  32.6196060  -9.1126575 -24.1654034  33.4888458
  -9.1375952 -22.8440838  32.7931252 -19.6799030   5.1795659 -25.4566669
 -20.4373264   5.7147031 -25.6945324 -19.4884815   5.5494370 -24.5866146
  27.1129513 -31.4192715   2.3438964  26.3943386 -31.3700390   3.0046134
  26.6268978 -31.3962078   1.4981477 -31.3216915  23.7939320   4.6390309
 -31.2766685  24.6815414   4.2051401 -31.8208561  24.0396824   5.4316745
  -6.7986627   6.5876322   7.1576180  -7.5566492   7.1506038   6.8842306
  -6.9280615   6.5811973   8.0884619 -18.5070839 -33.6392517  14.7837696
 -18.6428013 -33.2182846  13.8712988 -18.6303787 -34.5809555  14.4423103
  -1.5753512 -27.6630230 -29.4542904  -1.5846276 -28.2305126 -30.2270966
  -1.3998083 -28.2823296 -28.7370815 -10.8706436 -11.1661463  30.7649841
 -10.2806234 -11.2213125  31.5627937 -11.7460432 -11.1405735  31.2692566
   2.9902432 -13.6270742  27.3744946   2.8585253 -13.7255564  28.3625450
   3.9179828 -13.9440670  27.3068771  -3.1786735  39.2183189  18.2503319
  -3.0794251  40.0723877  17.8773766  -3.8734226  38.8573952  17.6954422
   4.0406880  -7.4306684 -23.5410919   4.9410162  -7.5041618 -24.0197086
   3.5583627  -7.9875884 -24.1910744 -25.7515965  -9.8082266   4.0899248
 -26.4175625 -10.5496397   4.2041321 -26.1473598  -9.2448797   3.4241960
  -9.3804684  15.4729738  45.9918480  -9.0347366  16.2655067  46.4740753
 -10.1750660  15.2411003  46.4582138   6.8261395 -40.6576653  13.9765959
   7.2971549 -39.8049965  14.0405416   6.4966102 -40.6991158  14.9165735
   7.7448373 -32.1624870 -32.0007477   7.4080215 -32.6713524 -31.2309837
   8.6266479 -32.6838608 -32.1197319  10.6279984  -9.8770628  44.9167099
  10.4487438  -9.1243324  44.3679237  11.3969622  -9.5398827  45.4631386
  10.8063717 -31.4759483  19.2256870  10.2057724 -31.0252991  18.6150932
  10.2473221 -32.0280838  19.8086910  11.3154373  21.1277390 -31.9168968
  12.2538567  21.3376427 -32.0529289  10.8644629  21.8119240 -32.4566498
  25.5780334   3.7228687 -19.4566154  24.7483673   4.1504626 -19.1499214
  26.0504475   3.6039782 -18.6293030  -7.1261134   9.6774912  39.0484848
  -7.9517198   9.3045826  38.6257210  -7.6185117  10.4298439  39.5155945
 -20.5874481  19.5060196 -19.5823650 -20.5160503  20.3028355 -20.0971832
 -20.1521702  18.8245640 -20.1490669 -14.0911846  -5.9716730 -36.1216202
 -14.3061657  -5.0134249 -36.1282272 -14.3027782  -6.1714697 -35.1519852
 -14.4988575 -32.4109726 -26.2262688 -14.9015684 -32.2928505 -27.1097088
 -14.5085058 -31.4676991 -25.9122906  43.6224060 -18.5730400  22.7362232
  42.8662071 -19.1301842  22.4727325  43.2634125 -18.2253246  23.5749302
  40.0182152 -14.6622810   7.5216169  39.9023666 -14.2357492   6.6809630
  39.2412453 -15.2977962   7.5293994  -6.2997704 -15.1580706  -2.2002158
  -5.6532116 -15.6832638  -1.7175953  -6.8967295 -15.9292307  -2.4927459
   3.1898332  44.0938339  -5.5025506   3.9314625  43.7778702  -6.0908613
   3.3938985  43.6058998  -4.6708727  21.3918190  45.4865227 -11.5930920
  22.0892544  44.7653809 -11.4171867  21.6973801  45.7976799 -12.4940081
 -18.8034630  34.6106339  12.7694130 -19.2343159  33.7069397  12.9849892
 -18.4461155  34.3639297  11.8964844  -3.7208533 -14.5214109  -3.8130097
  -4.5147724 -14.6629095  -3.3178949  -3.9018974 -13.5920401  -4.1573462
 -15.7809010  34.0720634 -12.9136333 -15.8472433  35.0028572 -12.5850773
 -15.3468075  33.7050209 -12.1295071  30.3919411 -34.3789825 -22.2159576
  29.4352245 -34.6624947 -22.1711693  30.8192024 -35.2029686 -22.4614048
 -29.8199158  -4.8823810  18.1629505 -29.3377686  -5.7414412  17.9046459
 -29.3864727  -4.7506809  18.9992599  16.4939556  10.4694366  11.1411743
  16.5883236  11.1464376  10.4739199  17.3320198  10.4714479  11.5900288
  20.5140934 -26.9644165  13.8247499  19.9268246 -27.7452736  13.8418217
  21.0854321 -27.2011776  13.0436964 -21.1051311   1.9705247 -23.1893616
 -21.0711403   1.1921278 -22.6303673 -20.6722202   2.6308947 -22.6277237
 -12.3623028  22.3151340  30.3204803 -12.3297281  21.7736301  31.1430149
 -11.5978909  22.9589024  30.5121708 -32.2434769 -31.5907307   6.1945376
 -32.6285362 -30.9606876   5.5557179 -32.8035812 -32.3913765   6.1166902
 -34.7550774  13.7789516 -18.2371540 -35.1417236  13.6600933 -17.3886299
 -35.4288330  13.5624428 -18.8799877  42.9915428  -2.5881686  22.6931076
  43.8913727  -2.1460297  22.6508064  42.4522400  -1.8524165  22.3045292
  38.1352577  11.7005329   3.0932300  38.7814865  11.7782698   3.8044736
  38.3915482  10.8129559   2.7017019 -11.3389168 -22.4286194 -29.1433620
 -10.4388418 -21.9608479 -29.0810776 -11.0443392 -23.2839222 -28.8362694
  -4.1052408   4.1009669  23.1924896  -4.2085876   3.8697698  24.0700626
  -4.8489518   4.6945882  22.9627514  18.6163044  -8.6645203 -12.9797716
  18.0636711  -9.1319389 -13.6220636  17.9087486  -8.4837885 -12.2709560
  -1.9353082 -37.3280525  10.0751514  -1.7629637 -36.6957207   9.3679047
  -2.0197132 -36.7184982  10.8634262   0.8265147  43.8335114  -4.0059710
  -0.1172577  43.9568825  -4.2414312   1.2279249  44.0280609  -4.8545856
  -0.8518697 -14.9214373 -27.7661839  -1.1519260 -14.0519552 -27.4411755
   0.1265124 -14.6606989 -27.8083134  11.8852644  23.4533234 -34.8553886
  12.5684385  23.6669083 -35.5316429  11.4398470  22.7078266 -35.3355865
  28.0221691  34.6119232  18.4243832  28.1396618  34.0377274  17.6414185
  27.0497303  34.6200714  18.5841465   4.0963588  -7.4857945   8.7804146
   3.8412912  -7.1603227   7.8919973   3.8579938  -8.4330854   8.8169365
 -37.8643074 -27.0071754  -4.5241385 -38.3543892 -26.1327801  -4.6443100
 -38.5860023 -27.6260777  -4.6457243 -13.5857830  -8.5488596  26.8770714
 -13.9351206  -8.6197748  25.9635925 -13.8485708  -9.3755674  27.2461281
 -26.8950214 -11.6509199  17.7397499 -25.8962193 -11.7659807  17.6753769
 -26.9765167 -10.7281504  17.5330448 -18.3789005  10.7392702 -50.7241936
 -18.7171497  11.6365089 -50.9219513 -18.2370625  10.3898735 -51.6527901
 -22.0537987   8.8860826  26.0578594 -21.2806511   8.9469671  26.6608448
 -21.7126827   8.2929192  25.3862171  -1.7246838 -32.7823906 -25.4061222
  -1.3350977 -33.0103035 -24.5196171  -2.1368749 -31.9023361 -25.1935215
 -39.3201904  28.7386246  -3.1839304 -40.1329346  28.7565517  -2.6904664
 -38.9574509  27.8833904  -2.9369349 -36.1284180  15.4138393  13.6651945
 -35.9223824  15.8201580  12.7425804 -37.0319672  15.1245937  13.5060644
   7.3951993  31.5623722  14.6607466   8.1311197  31.8324986  15.2415457
   7.7550745  31.7423286  13.7692175  34.5896835  18.1030922  22.3639603
  34.5688324  18.9357738  21.8556404  33.6277008  17.8746643  22.4008560
 -11.2139435  11.2826519  50.4995842 -11.6568727  11.4211321  49.6512985
 -11.2868557  12.1259785  50.9493103   5.5127239  -7.7947011   4.6038437
   6.4321051  -7.7000632   4.2558594   5.0440168  -7.3681827   3.8350294
   7.0012631  26.6459560  13.3360386   7.6090841  27.1898537  13.9124289
   6.2164574  26.5661201  13.9672384   0.8533646  37.4996796  18.9177608
  -0.0244112  37.5846901  19.4332600   0.4014945  37.6451569  18.0241814
  31.6046143  -8.9703903 -12.8412113  31.8981800  -8.2094851 -13.3194370
  31.3426380  -8.5817528 -12.0148001  36.8625679   0.1831379 -24.5523243
  36.4877701  -0.7842805 -24.7110882  37.0880203   0.4258997 -25.4406090
  -0.9845068  10.2497721   6.8472271  -0.4207149   9.9047108   6.0677090
  -0.2559908  10.2981882   7.4749346 -18.4657726  38.8097496 -15.9971552
 -19.1646976  38.5569954 -15.4071074 -17.6909752  38.2614174 -15.7068195
 -30.4616909  24.4504757  -9.2854776 -29.7674026  24.9238892  -8.8232422
 -29.9954529  24.0876617 -10.0394640  27.4027576 -15.1706858   5.1919312
  27.2035179 -15.0146494   6.2246308  27.2174358 -16.1522961   5.2991958
  23.3965340  14.9889412   1.1929075  22.6102562  14.9844866   1.8137026
  24.0439186  15.4750576   1.7453059 -13.4944706  29.0960064 -28.8661919
 -12.5806599  28.9052086 -28.4574356 -13.1924210  29.2897396 -29.7772102
  -3.2153940 -41.7481194   8.2420006  -2.7870598 -42.6392174   8.1338196
  -3.8197162 -42.0118256   9.0024996 -42.9937515   2.6753232 -15.8419895
 -43.7423058   2.0836010 -15.6167631 -42.3331566   2.4291725 -15.2374916
 -15.0589638 -48.9471283  -0.1551982 -14.8892870 -48.9029999   0.7786978
 -15.3742886 -48.0887566  -0.3779289 -12.7047377   3.8332562 -24.6774273
 -13.6099072   3.5784514 -25.0230007 -12.5037441   3.0781975 -24.0997295
  -8.3935699 -19.3819809  29.1970425  -7.9108129 -20.1667023  28.7453461
  -9.1182156 -19.3410931  28.5772362   3.9084334   7.9141006 -10.5298042
   4.4120693   7.2192035 -11.0123644   3.0279055   7.8701973 -10.9385252
 -29.1980629 -40.8044930   0.4412826 -30.2069111 -40.6517372   0.4691978
 -28.9619656 -40.5484695   1.2865207  36.1570053  30.9782257 -15.5876007
  36.0078316  30.1357269 -16.0760632  36.5782967  30.5627460 -14.7565765
 -15.8837051 -30.8644009  25.6644764 -16.5229702 -30.5863247  26.3583241
 -16.3105145 -30.5409451  24.8744469   1.8377768   1.8472912 -40.6003418
   2.5438089   1.8387448 -39.9311714   2.3118942   1.4689517 -41.3120193
 -11.5957108  20.7112350  36.4347687 -11.9138966  21.5806465  36.2621574
 -10.6574173  20.7821255  36.1887321  15.6236601  20.1607571 -28.2636395
  14.7932072  19.8929195 -28.6161919  15.4788694  19.9246483 -27.3085632
 -37.6849899 -26.6184063   6.8595967 -38.5092316 -27.0873470   6.7477922
 -37.0720177 -27.0628204   6.2143745  -1.9324346  12.1540585 -28.2561321
  -1.4043173  12.8707571 -28.5311222  -1.2595701  11.3976202 -28.3495235
   2.2863660 -18.3295383 -13.2448530   1.7789658 -17.5066795 -13.3883972
   2.8788667 -18.3696518 -14.0065489  -6.9330053   6.2774234  23.5505981
  -6.6277685   5.9310179  22.7047749  -6.0700936   6.3977785  23.9927578
   7.7273469 -26.1585789  37.2659645   8.0548897 -25.9193687  36.3207016
   7.1043019 -26.9154701  37.0358086 -31.2879276 -19.9172211  27.6501541
 -31.4923687 -20.4268456  28.4569588 -30.7384090 -20.4839935  27.0897560
   3.7371132  20.9812565  -6.1410775   2.9894600  20.4253426  -5.9844518
   4.3752599  20.7954445  -5.4238615  12.8208027  30.8978920 -11.8452024
  12.8429947  30.1875381 -12.5351076  12.9220009  30.3175640 -11.0679932
  19.4729271   0.1011377 -10.2791147  19.2647228   1.0499440 -10.3299437
  20.2510891   0.0307124 -10.9272823 -12.7293139  15.2240438 -25.3299503
 -13.0058527  15.7856874 -24.5453186 -11.7451811  15.2929535 -25.1305561
  10.0162859   9.3902817  23.5872402   9.3239784   9.1017056  22.9931087
   9.4760895   9.7309418  24.3662376  28.5040035  17.7589569 -19.2618275
  27.6752682  17.2884121 -19.0678349  28.4527016  17.6744747 -20.2583733
  -7.9458561 -42.9900627   2.6814280  -8.0416479 -43.3026505   3.5867350
  -7.0477653 -42.5754852   2.7532568 -35.7550392  10.1208105  -4.7435107
 -36.6495819   9.6580362  -4.9490471 -36.1006165  10.9871244  -4.4656787
  -1.1237718 -17.3760185 -11.7905331  -0.8113512 -18.2646236 -11.5046692
  -1.4440669 -17.5803375 -12.6793308 -25.0911140  33.8525925  27.0677166
 -25.9743919  34.1667061  27.3189507 -25.0423832  34.0258675  26.1053944
  24.9929276  14.7101412  31.4105301  24.0511189  14.5034456  31.1866550
  24.8368149  15.7024021  31.5741253  27.3535614   4.2965536   9.8891163
  27.5877647   3.3865054   9.6678486  26.4897480   4.3759151   9.4662571
  25.3952179   4.5679851 -14.3096752  24.9113045   4.6787496 -13.4902573
  25.0172424   5.3462586 -14.8433094  -6.2627568   2.4836376  10.0559797
  -6.0601664   2.1084228  10.9129829  -6.1337967   3.4661260  10.3046474
  15.7299309  47.3004112   1.1975688  16.7235222  47.1913643   1.1998944
  15.5831728  48.2042198   0.8830734  33.5653915   9.8759604 -33.4580078
  33.3799171   8.9207373 -33.5539932  33.5255852  10.2498598 -34.3353233
  19.7811890 -10.0328083 -45.6689796  20.3744202  -9.2119846 -45.6509132
  19.1910572  -9.9167128 -44.8863373  -7.9432926  21.8216381  12.4147215
  -8.1583338  21.1038666  13.0338593  -8.2664843  21.3841019  11.5671101
  11.7453194 -17.4583931 -33.3949852  12.0188770 -16.4789352 -33.3785400
  12.4746256 -17.7852592 -33.9705276   8.7495213   6.7296667 -25.5013676
   8.2425032   6.1736093 -26.1113014   8.0925665   7.4079542 -25.2449837
 -21.1895390  -0.6263697   6.6980977 -20.6602898  -0.3477858   7.5350394
 -21.1389141  -1.5872734   6.8608923 -14.2057638  11.9549198  -7.5204926
 -15.1477146  11.9349890  -7.1475644 -13.7945356  12.1851072  -6.6616426
  11.3754120   2.4546242  25.4581223  10.5046711   2.7067208  25.9309902
  11.6792412   1.7992771  26.1469440  42.7310562 -13.7587938  16.7594337
  43.0412979 -14.2029543  17.5558014  42.4988441 -12.8326788  17.1420803
 -10.7088842 -37.4257393 -27.0868568 -11.1492262 -37.8532143 -26.2777138
 -11.5387421 -37.3658562 -27.6701126  -8.9240332 -14.3648338 -31.9107075
  -8.8915300 -13.4741411 -32.2881775  -8.8842831 -14.8699436 -32.7575645
  -6.8285232  28.4592800 -26.3821259  -5.9451432  28.0190239 -26.3003101
  -7.1558781  28.4600830 -25.4781151  -9.9319715   3.4773052   3.1288931
  -9.8692160   4.0641060   2.3242211  -9.7975016   4.1580100   3.8147395
 -37.7862244  13.8536692   7.3911362 -36.9166985  14.3684654   7.2811151
 -37.9203796  14.0439310   8.3197107  22.1042385  28.5067234 -16.0139790
  21.1399307  28.3891048 -16.2523785  22.2363110  27.6774368 -15.5182714
  -9.5729694  27.3521709   4.3497753 -10.3736010  26.9309826   3.9558806
  -8.9039841  27.0156708   3.6996243 -16.9444561  23.6492882 -10.9727736
 -16.7740192  23.1972866 -10.0986242 -17.7054119  24.1566181 -10.7900362
  30.5134735  -1.1700841 -36.6756859  30.7820892  -0.4774628 -36.0729218
  29.8032150  -0.7247013 -37.1915741   5.8474412  30.0897369 -17.4988232
   6.2113743  29.9776077 -18.3693695   6.6770368  30.0007133 -16.9188328
  38.1005974  27.4155750  19.4262123  37.3098183  28.0351334  19.2735443
  38.4196053  27.2886181  18.5127811  11.7029266   5.7704082 -14.7395830
  12.1018209   6.5227914 -14.2310047  11.4253998   6.2381163 -15.5619974
   2.9231031 -17.1977329   5.3041806   2.7389152 -17.7728348   6.0868473
   2.2435794 -17.4244423   4.7017393 -13.1749716 -27.2564106  -0.2685319
 -12.6117601 -27.5828438   0.5264471 -14.0557089 -27.2158794   0.1618511
 -18.3378830  35.7087212 -21.0813618 -19.3159580  35.6276779 -20.9449635
 -18.1198940  36.2528915 -20.2868233 -37.0762138  15.6847277   3.2358150
 -37.5215569  14.9028416   2.9154749 -36.8650780  16.1487255   2.4151225
 -43.1735229  16.6254692   1.5902671 -43.8049507  16.8018131   0.8284169
 -43.4252510  15.7298088   1.7743886  -7.8496242 -23.0137596  29.6505222
  -8.0728197 -23.9113731  29.2846031  -8.0438700 -23.1908169  30.5893879
  -2.1454535 -45.0688362 -18.6085262  -1.6247571 -44.7878036 -17.7884979
  -2.9820640 -45.2651978 -18.1189060  31.6751728  -5.1560545  23.5104389
  32.1356468  -4.5353360  24.1399212  31.7313862  -4.6311426  22.7105103
   1.5569286  34.3255806  -7.5070877   1.6186049  35.0660744  -6.8261833
   0.8822151  34.6944504  -8.0682430   0.2325083  -8.8987379  -6.9522238
  -0.5976942  -9.4365625  -7.0540123   0.5250236  -8.7650614  -7.8861890
  19.9270401   5.6682677 -11.5394783  19.5221100   5.2198982 -10.7406111
  19.1128845   5.9529457 -11.9931507 -11.1168175  -0.8886005  29.8542881
 -11.3379297  -1.5914986  30.4513435 -11.7589064  -0.1971579  30.1084671
 -10.1375370  36.2525749 -22.0868549 -10.7281923  35.7483139 -22.6931324
 -10.8073330  36.5242653 -21.4395638   4.7011309  22.7527218 -19.3026886
   4.8924851  22.2754555 -18.4839249   4.6682301  23.6814117 -19.0345135
  -5.0973005 -25.6002655  -3.2335443  -4.8024068 -26.3009090  -2.6554790
  -5.2247539 -26.0510464  -4.1151600   6.1253910 -13.7720842  30.8832359
   5.3001385 -13.3140192  30.7199631   6.1239510 -14.4936867  30.2149105
  19.0575905  30.0949860 -14.9745855  19.3706360  29.5032463 -14.2651348
  18.6716595  29.4241505 -15.6032887 -13.8848391 -40.8086929  12.7559233
 -14.4655304 -41.6146469  12.8013000 -13.0009651 -41.3021622  12.6269350
 -16.7091961  30.1192837 -35.4715004 -17.2646828  30.2939873 -36.2472038
 -16.2814388  29.2844353 -35.7165031  -9.9333420  22.4120045   7.4161730
  -9.6982546  22.4167194   8.3655443  -9.2198143  21.8883438   7.0262728
   7.6585078   1.3236585 -44.8765602   7.4173245   2.0750365 -44.2963295
   6.8030171   1.1061078 -45.2430077   0.6620743  -3.9068639 -37.7098618
  -0.1954252  -3.9204600 -37.1295242   0.6302968  -4.8524837 -37.9966164
 -17.5350952   1.6870692  -2.5265505 -18.3028545   2.2922339  -2.6698055
 -16.9134350   2.2386527  -1.9971796 -12.0192966  41.9897766 -19.3661060
 -12.5520926  41.8974648 -20.1860943 -12.2636223  42.8176994 -18.9438896
  -5.4313021 -21.3000031  37.1905594  -5.9723778 -20.7096977  37.7252274
  -6.0957923 -21.9543247  36.8815765  13.9034758  46.2971649 -17.4457092
  13.1560163  46.4447441 -16.8008919  13.6215630  46.9101143 -18.1940651
  -9.7065248  17.2788563  18.3947067  -9.7674618  16.4640598  18.8688583
  -9.1433992  16.9589005  17.6447277  10.8041983 -11.5432177  26.8301964
  10.5747356 -12.3080015  27.5129147  11.6361132 -11.2896099  27.3692608
  44.5656281 -22.1691437  -4.3629975  44.7965584 -21.2050533  -4.4798813
  43.7378654 -22.1854000  -4.8305740 -34.4071083 -23.9369221 -12.2163506
 -33.9069099 -23.8344460 -13.0502558 -35.0125122 -23.1929245 -12.2776785
  39.0419617  -2.6614254  -0.7602533  38.3168831  -2.0210223  -1.0002205
  38.7988853  -3.3825917  -1.4537411 -27.6787376   6.9397178  39.7061310
 -27.1343975   6.7899666  40.5426941 -27.0245438   7.4986649  39.2645798
  23.1673164   3.8041568  41.7065086  23.2439880   3.4770172  40.8310814
  22.6622410   3.0775194  42.1664963  39.7351341   2.5383024 -25.9646244
  39.3232384   2.6755424 -26.8244743  39.1887741   3.1867020 -25.4291744
  24.0656109 -18.1989155 -16.3361340  23.8482933 -19.0844059 -16.0273952
  25.0753040 -18.2751904 -16.4086914  -3.8246562 -38.9591789  12.9336128
  -4.2610216 -38.2870255  13.5046310  -2.9092369 -38.6550064  13.0806322
  -4.1848097 -27.6018600 -10.6497774  -4.5255566 -26.8471642 -11.1398659
  -4.7725425 -27.5622845  -9.8807268 -11.9063520 -18.9357872  -9.8546333
 -11.9579630 -19.8712749  -9.5134048 -11.5488529 -18.5319462  -9.0395813
  43.4227753 -18.9955311   4.4869866  43.1331253 -18.4002743   3.7779825
  44.1397133 -19.4741573   4.1067629 -32.9270630  32.3912849  -6.7715030
 -33.7881813  32.3879051  -6.2910104 -32.6652908  33.3218651  -6.6370177
   7.6195612  -5.0242791   7.3746567   7.1896248  -4.1137004   7.1828966
   6.9993038  -5.2896228   8.1205683 -14.7473783 -28.2019863 -30.8277855
 -15.6613531 -28.1632309 -31.1791668 -14.8657255 -28.6415157 -30.0080261
   8.0039454  12.5076618  18.9713821   7.8717976  12.0859127  19.8080120
   8.6469641  11.9421139  18.5486565  44.1631660 -14.4601898  14.6430588
  44.9382133 -13.8676996  14.8484430  43.5924873 -14.3284817  15.4082041
  24.6424065  -4.0842271  -9.7019405  24.2406292  -4.2326698 -10.5841751
  23.9381351  -3.5879614  -9.2483816  33.1094513  36.1127510  -6.8868151
  32.6489944  35.4036636  -7.3912821  33.0360184  36.8676834  -7.5605769
  15.0707493   3.8307793 -21.2668209  14.5177574   3.8208144 -20.4544811
  15.4938698   2.9839461 -21.2768040  18.2037258   1.4099153  34.4187241
  18.1219044   0.9854257  35.2935448  17.2667713   1.2420610  34.1319771
 -19.1490002  -4.6170988  25.4420738 -18.8756275  -4.7325988  24.5618706
 -18.9988327  -3.6195757  25.5861702  15.7874708   5.1174574 -12.0128508
  15.9785566   4.9444051 -12.9253645  16.3530407   5.9388328 -11.8201113
  11.3144083  10.7993784 -32.8469620  10.7539911  11.1970301 -32.1469154
  11.6832962  10.0312166 -32.3108253 -18.1935844   3.3956029   2.3830495
 -18.1487160   3.6096416   1.4414849 -17.3072357   3.1194417   2.5861936
  38.6428070  34.8378448  -1.3164691  38.7735443  35.8012581  -1.4436126
  39.4655304  34.6559334  -0.8011245  28.7523708  16.4306965 -22.0041561
  28.3614941  15.6999245 -21.4449902  27.9945221  16.6291618 -22.5865803
 -41.6492844  -4.1014957 -13.9519835 -40.8740654  -3.9545074 -14.5039062
 -42.3904305  -4.1003547 -14.5786324  31.4471111 -17.6031437 -16.5907001
  32.0025024 -17.0680466 -16.0031281  30.8773441 -16.8658180 -16.9166927
 -43.3833885  12.5020580  18.2459335 -43.8231850  11.6658735  18.1679859
 -44.1358795  13.0428133  18.6735554 -21.8127117  13.8697300  -9.4398603
 -21.8461227  14.8421335  -9.5264397 -21.4456997  13.6023798 -10.3114471
  15.6623316  -4.5854931  24.9536228  16.4803429  -4.2427497  24.5754433
  16.0313568  -5.4696064  25.1494751  13.7869616  -2.3420374 -46.9257660
  14.7915192  -2.3363991 -46.8513870  13.6451683  -1.3752542 -46.9859581
  18.5778847 -35.8467979 -12.0757113  19.3840084 -36.3700905 -11.8434753
  18.0974236 -36.4996300 -12.5792360  13.8670387 -11.9123478 -39.3722458
  14.3764753 -11.4551649 -40.0703354  14.5148535 -12.6196899 -39.0694923
  24.0620117 -32.9832191  24.3057213  23.1287727 -33.0025978  24.0977058
  24.4962196 -33.0578003  23.3987999  14.8477364  25.1927681 -29.2353134
  15.4937429  25.4751987 -28.5302925  14.6150570  26.1455421 -29.5602531
  39.7985306  18.1943398  10.0858183  39.2809563  18.1587410   9.2783270
  39.8433952  17.1980228  10.2747612  -2.2498300 -21.3552933   4.0611162
  -1.6806488 -20.5779076   3.8228879  -2.9087968 -20.9058685   4.6408482
  -8.3286409 -48.1524124   1.5008518  -8.6527510 -47.2641983   1.7566401
  -8.4963112 -48.0934296   0.5055785 -26.2133751 -28.3917885  19.3921833
 -26.5873795 -28.0002098  20.2128735 -25.9640427 -29.2908630  19.6183319
   8.1893072  26.0695114  31.0715218   7.9186020  25.1728191  30.7178822
   7.5483742  26.5693874  30.4914017 -16.3137798  38.7311249 -27.6390209
 -16.4507370  39.5894814 -27.1344604 -17.2252045  38.3229408 -27.4646149
  -2.4920111  37.7693100  11.0899563  -2.4327710  38.7387161  10.9568377
  -2.8446391  37.4434509  10.2404957 -23.4703007   8.3441429  46.8237495
 -23.1025105   8.0109701  47.6887016 -22.8580894   9.0476723  46.6467361
  -7.4444671 -11.7795258 -41.0916405  -8.3461552 -11.4708633 -41.3120193
  -7.5012903 -11.7175732 -40.1301842  28.8570538  36.2467728 -15.6741934
  29.6705933  35.7459946 -15.8017197  28.2179146  35.5700417 -15.9780827
  -8.7850103  36.1305428 -35.2714767  -9.0794563  36.2494926 -34.3130760
  -7.8312645  35.9105721 -35.1235657 -16.0104904 -51.8607216   6.7822561
 -15.0855236 -51.6378708   6.6837139 -16.4570484 -50.9865265   6.7319403
 -32.0552521 -39.0791626   1.2757456 -32.0888405 -39.4270096   0.3420684
 -32.4467735 -39.8958893   1.6962782  11.6559448 -25.6761780  26.5271606
  11.9459190 -24.7777977  26.2622509  10.6859646 -25.6145763  26.2875423
  17.3431854  34.6443405   7.0664401  17.2477646  34.0568695   6.3069859
  16.5261745  35.1988144   7.0194707  10.9594011 -24.3017540  -4.4060540
  10.6101980 -24.7383881  -5.2112598  11.6938934 -23.8198643  -4.7982783
   9.7921619  29.1494617 -24.2504082  10.6585827  28.7265568 -23.9340038
  10.0412712  29.1235332 -25.2277832  15.5244284 -11.1340780  30.5043411
  16.0031738 -11.5941133  31.1853943  14.9105968 -10.5768204  31.0784988
  16.2740021 -35.1902618 -33.4579086  17.1012001 -35.0853729 -32.9546509
  15.6641483 -34.8319626 -32.7659111 -40.5310135   5.8942094   1.3118848
 -40.7340088   6.4145446   2.1431310 -40.1623993   6.6427331   0.7969148
  29.6574306 -11.4999771 -41.4432526  29.6318760 -10.5545740 -41.2989960
  30.6300621 -11.6529112 -41.5006866  -8.9858999  32.4532127   6.6850123
  -9.5756273  32.8716965   7.2408504  -9.5014162  31.7775917   6.1798148
 -24.6853409  30.4678516   9.8961391 -24.0721149  30.3530769   9.1458778
 -24.8360767  31.4265652   9.8555031   3.4923372 -10.1354532   8.4446402
   4.4217210 -10.2546616   8.2271738   3.2524781 -11.0890131   8.8325768
  22.2337418  -4.6929550  28.3617210  22.4427128  -4.2457170  29.2151833
  21.9393425  -5.5853519  28.7629986 -17.1109695 -24.8802204  -4.5020356
 -16.9405956 -23.9727955  -4.9007125 -17.0808392 -25.3995266  -5.3034835
 -38.9858475   6.8776979  17.0140438 -38.1090927   7.2981586  16.7949085
 -38.6917572   5.9354839  16.8553143  17.5163059 -13.3281898   5.3450456
  18.0604229 -14.0503902   5.6124339  16.7198753 -13.4523983   5.8541679
  -4.5988960 -23.4713402 -11.9790125  -5.0221496 -24.3146915 -12.1355190
  -3.6982200 -23.8015385 -11.6520815   1.7080892  26.1606865  28.8432503
   1.8166622  27.1390858  28.7793579   1.4974219  25.9242229  27.8964100
  -2.1579583  29.9437065 -36.5934486  -2.1521542  29.4531097 -37.4485664
  -1.6786338  29.3128929 -36.0245857  33.9388466   3.2929900 -15.6667318
  33.1173058   3.6613319 -15.3246622  34.6435432   3.6496227 -15.0626688
   0.9272215 -20.6474247   6.0098710   1.6792734 -20.5137005   6.6719704
   0.9325721 -19.7667866   5.5854425  -9.3297844  30.5296326   4.8183918
 -10.0368652  30.3043385   4.1746211  -8.9373140  31.2594109   4.3326807
 -24.5233669 -38.3276672  -8.4216814 -24.0402794 -38.3184624  -9.2913027
 -25.3882618 -37.9830475  -8.7425470  20.3600082 -16.6845970  37.1615944
  20.5548344 -16.0209980  37.8287659  19.4648056 -17.0207520  37.5069885
  31.1431503   8.1649227  29.1874790  30.8539276   8.5354815  30.0553284
  32.1425056   8.2480669  29.3235149  27.9958534 -28.0998230 -13.9687185
  28.7861652 -28.7035370 -13.9570265  28.1982021 -27.5626011 -13.1703167
 -12.5639410  31.5838718   6.8640966 -13.5306845  31.6444244   6.8220840
 -12.3029070  32.4147911   7.2065144  -2.6482885 -21.2980633  32.7231941
  -3.0451210 -21.0425358  33.6058083  -3.1247942 -22.1498413  32.6258774
  18.7682934 -13.3857708 -34.6495934  18.8824425 -14.3258858 -34.7933617
  19.1961861 -13.2124739 -33.8356438 -22.0764599 -28.9571285 -16.4481697
 -21.9985847 -28.9928722 -17.4456520 -22.4587498 -28.0993080 -16.3493729
  41.4084702  25.7449245  -2.5357382  41.0549202  26.3572826  -3.2233648
  41.1923065  26.2881718  -1.7462428  10.4765663   7.5460863  -2.4244769
   9.6792612   7.6024122  -2.9383335  10.5028276   6.6735334  -2.0360227
   7.7377672   0.8262107  38.1181602   7.2171879   0.1821917  38.6527557
   8.0095501   1.4441277  38.7996597  25.6811447  43.2343979  14.8514671
  25.6420631  43.8531303  15.5688829  25.1348076  43.6998672  14.1462936
 -21.9753246 -13.7768011 -10.9072714 -22.2065144 -13.7694664 -11.8561659
 -21.4476032 -12.9750690 -10.8434715 -30.3795986  13.5463610  12.3230753
 -30.0110531  12.9390554  11.6732044 -29.7667427  14.3016424  12.2082090
 -43.7236824  -3.7425251 -15.4507046 -44.1882324  -4.5568814 -15.2387619
 -43.7818184  -3.7624528 -16.4647446 -43.0997200  -0.2618172 -29.9137745
 -43.2666168  -0.8867159 -30.6358166 -42.3450432  -0.6738523 -29.5086842
 -26.5839710 -19.5836029  24.7293148 -25.9395447 -20.2941647  24.5680943
 -26.8122120 -19.4018841  23.8192101 -25.6015301 -14.7113972  27.0211639
 -24.6502495 -14.6763144  26.7222500 -25.8876858 -13.8120804  26.7130146
  15.8169336  36.5694008  16.6660118  15.8344803  37.3989944  16.2636795
  16.3586330  36.6476707  17.4527283  43.0873909 -30.3389435 -11.9155350
  43.4929504 -30.1804867 -10.9814463  43.9008865 -30.6777439 -12.3633308
 -24.9564991  33.5997238  12.2858438 -24.7237949  32.9355965  13.0077276
 -25.5112648  34.2232094  12.8904057  -0.4037939  25.5143070 -23.0798264
  -1.1688303  24.8910122 -22.8991623  -0.6615080  26.3098545 -22.5562038
 -22.0362549   7.0283790   3.9959507 -21.3900394   7.2811813   4.6973934
 -21.4392643   6.5236354   3.4424148 -20.6766071 -20.7619724  18.9962673
 -20.8199100 -19.9900799  18.3650913 -20.6953659 -20.2165222  19.7916527
  20.5620384  10.9100046   2.1082861  19.9435883  11.1016636   2.7937083
  19.9824982  10.8948374   1.3031296  19.2410583  -3.2662895   7.2646794
  19.1222229  -3.4043286   6.3125000  18.3621998  -2.8494916   7.4848108
   7.0809822  -7.3119822  20.2608929   7.3332362  -8.0039492  19.5824566
   6.3779263  -7.8312550  20.7017250  18.0379047 -19.1085339 -13.1664925
  18.9848347 -19.0408916 -13.1986704  17.8160286 -18.1719284 -13.1680651
 -42.6705132   2.7731361  -0.9123979 -42.9854889   2.7808752  -0.0063702
 -42.7126617   1.7698137  -0.9940858  34.4881859 -32.5282249  -7.1099043
  34.2473068 -33.2204208  -7.7731886  33.8393250 -32.7758560  -6.4597478
  15.3900785 -39.1443596  25.4112740  14.4518242 -39.4881210  25.3222866
  15.8197050 -39.9921608  25.2502556 -16.1435509 -24.4903603   7.0817232
 -16.3683510 -24.5532742   8.0240507 -16.9061203 -24.0894070   6.7446699
 -12.1441736  24.3061275 -21.4853725 -12.5766106  23.8301220 -22.2102966
 -12.8552628  24.2281036 -20.8436279 -29.1719170  29.5261116 -16.0527802
 -29.1826382  29.3410435 -17.0024643 -29.5298214  30.4722137 -16.0857487
  32.3511810  37.7290459  13.5364580  31.6511765  38.0891685  14.0803900
  32.0316086  36.8623390  13.4000692  -4.6058202  -3.5749800   0.3183766
  -4.6363797  -2.6285169   0.1965213  -3.6494710  -3.7590880   0.3032921
  -1.9619939 -21.2305889  14.0197830  -2.7871854 -21.4189224  14.4655895
  -1.4498022 -22.0725346  14.3503084 -16.5845680  27.8203735  -1.3850768
 -15.8137379  28.1877060  -1.9265332 -17.3303661  28.2487812  -1.9151782
  -4.0674534  19.3395023 -38.9907265  -4.3032379  19.9825726 -39.7546577
  -3.1481104  19.7613964 -38.8203812   0.4712567 -38.2554359  -2.2100611
   1.4267107 -38.3300362  -2.4717705   0.1755776 -39.1718674  -2.3171120
  25.5694523 -37.2651443  28.1224403  24.9774723 -37.9959297  28.1289654
  26.3490028 -37.7202950  27.6750851 -31.6414680 -24.0790596  13.8820257
 -31.1662254 -23.2249813  14.0471601 -30.9979382 -24.7273312  14.3334494
   4.5300570  -5.2704496 -40.4376297   4.4114203  -5.2840643 -41.3941689
   3.9378843  -5.9638252 -40.1268425  42.3153534 -27.3071384 -16.5540962
  42.4492340 -27.3293476 -17.5108814  43.1455040 -26.8801861 -16.2548885
  -2.8636646  20.3839455  19.0131226  -3.1423309  21.1259212  19.5657768
  -2.5892949  20.8664684  18.1907520 -28.0032215  26.5311623 -30.2994900
 -27.9261665  25.7380524 -29.7154560 -27.3676186  26.3509312 -30.9678288
  17.3172092  21.8761501  22.5493774  17.1208477  22.1542664  23.4461021
  16.6678638  22.4387302  22.0519085  -9.1824350   7.8601642 -26.1244774
  -9.4973173   7.9229746 -27.1038361  -9.7136526   8.5812559 -25.7561550
  -7.2709403   3.6715755  19.3333912  -8.1316986   3.8985972  18.9119186
  -7.3349404   2.7069578  19.3491421  14.5177546  39.0732231 -13.0615988
  13.6247396  38.7681313 -13.2402744  14.6262617  39.7473373 -13.7822466
 -41.9856377 -28.1502419 -11.2304792 -42.2414360 -29.0601845 -11.5833931
 -42.3683090 -28.2464485 -10.3343506  39.2560921 -14.7334232  30.5231304
  39.5912819 -13.9134302  30.0912304  38.5208893 -14.9939833  30.0313663
   2.7851963  14.6799278 -33.0292778   3.4056382  13.9428654 -33.1326942
   2.7713153  15.0336857 -33.9766197 -18.4494286  -1.8762709  18.9944305
 -18.4722042  -1.4555266  19.8667660 -17.5952778  -2.3202415  19.0086155
  30.1109200 -30.7683239 -23.1634617  29.6811905 -31.5541515 -23.6091614
  30.4496098 -30.3340607 -23.9381390  35.5953674  24.9229527  17.4158363
  35.4707298  24.9015884  18.3394165  36.2475662  25.6282387  17.2531834
 -14.1322107  21.4421177  40.5708237 -13.9519205  22.2204018  39.9455261
 -13.5649500  21.7366924  41.2861671   5.0819240 -35.6517487  30.3598232
   5.2153010 -36.1586609  29.5567474   4.1452904 -35.4626846  30.2925014
 -18.8659859  20.4438229  20.2316227 -18.6257992  21.2066021  19.6813488
 -18.0123234  20.3336811  20.6983147 -28.0780029  24.1591377  15.2733421
 -27.0838089  24.3111191  15.3240328 -28.2481232  23.8925877  16.1988583
 -21.6128082 -46.1434288   7.0253515 -21.2898521 -45.3477364   7.4172144
 -21.2764530 -46.0653648   6.1278620  15.9081869 -23.1374893 -45.1170464
  16.8722191 -23.3733788 -45.3491936  15.5940609 -24.1119862 -45.1353760
   6.4001522  39.9135284 -11.8715763   6.5246110  38.9263496 -11.6627016
   6.1755624  39.7671204 -12.7987347   8.1627073  35.7281914  29.1386948
   7.7776155  35.6365051  28.2239189   7.4598207  35.1792793  29.5979996
 -40.8373642 -14.3546095  -6.7418284 -41.3923264 -14.2959833  -5.9545836
 -40.0735207 -13.8320541  -6.4925508  14.1588697  30.2257824  11.0070782
  13.5370293  30.7706318  10.4475451  13.6891232  30.3373203  11.8473272
  11.7845020  17.8910980 -30.4491615  12.4191265  17.3747139 -31.0775776
  11.6582165  17.2305183 -29.7694550   2.0455382  28.8439922  29.3991947
   1.2400237  29.0750046  29.8622742   1.9816371  29.3374767  28.5692043
 -34.1061058  28.8780956   6.6086359 -34.3712578  29.7112694   6.1996665
 -33.1184921  28.9383335   6.4026766 -11.3551903  -1.2948467  11.3817978
 -12.0735483  -1.4225206  12.0634146 -10.8049660  -2.1034589  11.4944782
 -38.6459427  31.0606728 -16.1505947 -39.1331520  30.6914253 -16.8710365
 -39.4337692  31.2883492 -15.5306187  20.5268669  -5.5156450 -10.0837193
  21.1395569  -4.8051090 -10.4054642  20.7810135  -6.2056732 -10.7977324
 -42.3126907  -7.7893972  -6.8858428 -41.3419151  -7.8099852  -7.1132545
 -42.6306190  -8.4269905  -7.5515451  26.8247375 -36.2693100 -16.2315502
  25.9151134 -36.6122742 -16.3290482  27.1952496 -36.3476372 -17.1443653
 -23.4508762  -2.7244906 -21.8165874 -22.8310699  -2.2203500 -22.3595791
 -23.0223064  -2.7384093 -20.9470806  -4.2240396 -11.1713085 -15.1707544
  -4.8554053 -10.4810696 -15.5388212  -4.2163978 -11.7780704 -15.9038668
  16.3391056 -11.8711300   8.0022697  16.9923420 -11.0890236   7.9786229
  15.9015226 -11.6696615   7.1596599   0.1711850 -39.3312263   1.1240619
   0.4902228 -38.4938965   1.3307508  -0.6777982 -39.3478012   1.5285269
 -43.1039581  22.1806526   0.6668826 -43.4169960  21.3722324   0.1692796
 -43.7066460  22.8135967   0.3683880 -43.8014183 -13.6893587   9.0463676
 -43.9825172 -13.6365194  10.0178318 -42.8315201 -13.5058031   9.0326509
  12.5049686  32.7050247   1.2968786  12.3754492  32.0033531   0.6435081
  11.9031591  32.3510475   1.9718516 -32.1578522 -22.7538929  -6.9451323
 -31.2670975 -23.0014191  -6.4839640 -31.7712345 -22.0509720  -7.5079260
  33.5658264  22.6606941  11.9461317  33.4530869  23.5259495  12.4136801
  34.5576210  22.6621628  11.8309383  -5.0973444 -38.5261002 -14.9761906
  -5.4053974 -38.1036797 -15.7924433  -5.6864872 -39.2866898 -14.8982887
  36.6407661  -2.4819696  33.9723434  36.9037018  -1.6114354  33.5754509
  36.6992874  -2.3292570  34.9029884 -16.7822952  15.1784010  -7.8755498
 -16.6768112  14.4124012  -7.2798362 -17.3200302  15.7678404  -7.3179746
 -30.8950253   5.5516949  43.3731346 -30.7248096   5.2143416  42.4793930
 -30.9534874   6.5178227  43.2295761   9.9513235  -3.1454971  -3.5468695
   9.6363001  -3.8446798  -4.1415453  10.5209646  -2.6461434  -4.1820645
   0.5969204  -0.0731881 -14.5332146   0.4375882   0.7824343 -14.1009235
   0.5176901   0.1269012 -15.4824486  10.4822159 -24.7011108  14.4774494
  10.0679569 -24.3840771  13.7021017  11.2815638 -25.2349319  14.0969925
   0.6273686  11.7269754 -22.5293427   0.8240710  12.0378551 -21.6385860
   1.5621542  11.5584955 -22.8172626   3.7851989  24.5536518  -3.1120083
   4.5558167  24.8128471  -3.6325459   3.0920675  25.2398167  -3.3659878
  34.7794876  -3.4337931 -20.9408417  34.5231819  -4.0920162 -21.5681496
  34.5902977  -2.6360965 -21.4633446 -34.3218117  -1.2335083  14.5800028
 -35.1328125  -0.8059502  14.9963083 -34.6844101  -1.2373846  13.6523447
  10.7017765  39.6644020 -23.4683933  11.2599707  39.5496178 -24.2853470
   9.8431463  39.8569489 -23.8917980  25.6884232  42.0818062   1.7191435
  26.5788383  41.8686447   1.9585736  25.2493649  41.2533646   1.9054502
  19.1224003 -19.8357582 -18.6650219  19.7806473 -20.4466820 -18.2506771
  18.9567680 -19.1611958 -18.0770378  31.2082119  14.6272621  28.4253826
  31.8221741  13.9795160  27.9469681  30.8079681  15.0433550  27.5905285
  12.7292252  34.2532158  11.9295273  11.8583527  33.9892120  12.3697987
  13.3929071  33.8781090  12.5297022 -15.4361897  17.9472694  36.8659248
 -14.5101757  17.9964752  36.9683952 -15.6210527  18.7285728  36.3472672
 -40.1628380   3.8178895 -10.9164581 -41.0387840   3.3896863 -10.9189825
 -39.6270180   3.2267337 -10.3801222  41.1157761  -0.3456362  -4.5945988
  41.8407593  -0.3857299  -3.9588335  41.1394653   0.5895672  -4.8395786
  -4.7010360   5.7355585   5.6132917  -5.1250234   4.9546809   5.3331232
  -5.3666091   5.9716096   6.2843404   3.1873271  -1.0943501 -31.4840641
   3.9417472  -1.6183698 -31.8050594   2.4346766  -1.6564724 -31.6809864
 -33.9564018  -7.1061254 -14.6167440 -32.9817886  -7.0478730 -14.6316919
 -34.0055466  -8.0992222 -14.4070024  27.3417950 -33.8802223  -6.0412545
  27.4443760 -32.9532471  -6.2806072  28.2262669 -34.1030731  -5.8374252
   7.2218800 -10.9462824 -48.7278442   7.5904856 -10.2874165 -49.3332176
   7.8374662 -10.8384991 -47.9630432 -33.5025444   0.8744161 -34.8791809
 -32.6645279   0.7811351 -34.3746948 -34.0190620   0.0815765 -34.5282021
  28.7896652 -26.9700356  14.9164753  28.5516052 -27.4231339  15.7867908
  29.6805878 -27.3218117  14.7346621  11.3221579 -32.0596657  -0.5346172
  11.2569599 -32.6937904  -1.2515662  11.6051569 -32.6772423   0.2330883
 -26.8287125  24.7272129   1.7459872 -26.9358101  25.6965427   1.5660652
 -27.1868458  24.7453766   2.6929932  19.1277790  15.3857489  -4.7696242
  18.6849842  16.2967377  -4.8321433  20.0391350  15.7252140  -4.6864586
  30.0911007 -16.5814686  30.2145443  29.9587612 -16.7982121  29.2906361
  30.9907875 -16.1928043  30.2148438  -2.2776532  24.2304878  14.7967529
  -1.8614646  24.9542103  14.3397532  -3.1397390  24.6107159  15.0049162
 -14.6325016   3.3894072   1.9844731 -14.3182888   2.4954238   1.8528006
 -13.9137201   3.8601263   1.4582852   9.1682520  17.0839920  -9.1628447
   8.2591963  17.3217144  -9.0239000   9.3064518  17.3629284 -10.0920000
  37.4135971  15.0470200  -1.1497650  37.7758675  14.3592329  -0.5826308
  36.5710754  15.2611675  -0.7081031  22.7043076 -24.6641064  19.8722401
  22.1194744 -24.1809807  20.5221767  23.2509708 -25.1765385  20.4963837
 -26.0764809 -31.4336872 -19.6296329 -26.3308468 -31.3344364 -20.5579414
 -26.6489487 -32.2291451 -19.4704876  43.3114815  -0.4335016   1.9355912
  43.1897392   0.5085629   1.6838861  42.5113869  -0.8619409   1.5271223
  25.9264526  29.5975742   8.5759916  25.4401302  28.7503452   8.8620138
  26.7546005  29.5029831   9.1547117  -1.5922507  -4.1894393 -35.7955742
  -1.5531200  -3.8917513 -34.8556519  -2.1883445  -3.4895654 -36.2371063
  25.4411678 -16.7528152 -11.9897156  25.4441662 -17.4217796 -11.2777205
  24.4775848 -16.5384007 -11.9397802   4.0809684  32.7555885 -28.6498470
   4.7263145  32.5401421 -27.9474010   4.2332606  32.1203651 -29.3469505
 -20.3544788   7.3108931  45.3497086 -21.2734623   7.0854998  45.3212433
 -20.3015175   8.2589722  45.1916008 -24.1164265 -43.6277695  10.4735909
 -24.8037968 -43.1092529  11.0283499 -24.6804562 -44.3730659  10.1795063
   1.6031057 -38.0224075 -13.6198673   0.9885261 -37.2717323 -13.3279924
   1.3729849 -37.9919777 -14.6167908  -9.5152826 -30.7899265  29.8933678
  -8.6938620 -31.0566864  30.4626827 -10.2113972 -30.8919163  30.6045189
  15.1867714 -32.1267395  -5.3527436  15.1418352 -32.7933960  -6.0881944
  16.0196819 -32.5207062  -4.9314766 -10.4836159   1.7803818   7.9794087
 -10.7670708   0.9619527   8.3408051 -11.2776432   2.2306530   7.7346306
 -33.4615822  10.0875969 -16.7922592 -33.0317497   9.2247696 -16.7480412
 -32.5993004  10.6227865 -16.9716892 -28.7396889  26.3985329  21.8640099
 -29.2216454  27.1760616  22.2703972 -28.9932270  26.5490913  20.9008865
 -10.6784935  38.6414490 -11.6793766  -9.7593441  38.6915741 -12.0339050
 -10.4680786  38.0021439 -10.9151983   3.7743979 -24.7749710   7.8071651
   4.6586661 -25.0868835   8.0016289   3.9198525 -23.8302040   7.9905934
 -17.0992184 -12.9612370  -7.2880139 -16.9813194 -13.7599001  -6.8117981
 -17.7547626 -12.5164804  -6.6256633  -1.5252748  34.0653038  18.0920048
  -1.8782470  34.3531685  17.2926769  -0.6063548  33.8911171  17.8887901
 -20.5467319 -40.8062592   0.2972616 -20.9457741 -40.8808861   1.1782387
 -20.4681454 -39.8099327   0.2829115 -30.0667133 -31.9523945  14.0556040
 -30.8818150 -32.5602722  13.8748817 -29.7851162 -31.7231102  13.1366291
  27.6510448  20.8662910 -17.9135590  27.7099113  20.1441936 -17.3146801
  26.9074459  21.3828259 -17.5726509  15.2383184   0.7340336 -40.1215553
  15.9706554   1.3032748 -40.5116692  14.9208441   1.3908612 -39.4557877
  -9.7142191  13.0745411  32.8265610  -8.8102474  13.3183460  32.9143410
 -10.0760002  13.3266325  33.7369270  -2.8113391 -18.3737221 -31.8095455
  -2.3004146 -17.8092976 -31.1802597  -3.6075695 -17.8484364 -32.0332718
  25.4134827 -27.5853043 -20.8146820  25.5942059 -28.5118237 -20.5278587
  25.9350700 -27.1248379 -20.1005344 -28.6227589  -6.8357387 -36.7926865
 -28.1410065  -6.0831714 -36.3180237 -28.9059372  -6.2365851 -37.5658493
 -26.3144493 -40.3176079   5.1157494 -26.9095745 -40.2896614   5.9316421
 -25.4877548 -40.5640488   5.4693365 -31.5989227  -5.6087475  36.8223839
 -30.9826336  -5.9072361  37.5571480 -31.4178753  -4.6439438  36.7680626
  33.3380928   4.8802433   4.9234076  33.1129875   4.0237136   4.4175367
  32.6921310   4.7939296   5.6419740  -1.6011171  30.6457901  10.6076994
  -2.5107377  30.7093887  10.1858559  -1.7511803  30.5960903  11.5222740
  -5.3894072  17.3444195 -41.9725952  -4.5257411  17.5762749 -41.6067314
  -5.7253461  18.2211437 -42.2487640   7.6656299 -28.4595127  25.1573124
   8.5114212 -28.7626114  25.5792351   7.2019787 -29.3665791  25.3437099
  12.1824665  28.3894577  24.2551403  11.7354832  28.8710213  24.9319649
  13.1049013  28.4466953  24.5515442 -30.4065781 -23.5183849  -3.2473114
 -30.4039631 -22.9721985  -4.0129128 -30.5643806 -24.4108868  -3.5882490
  29.2094994  -2.3159249  29.8290825  29.1645088  -1.7865894  30.6716537
  29.7311115  -1.7678494  29.2940102 -21.7162266 -42.6097412  -1.0611441
 -20.9111977 -42.9885368  -1.4601997 -21.2767181 -41.9736519  -0.4653831
 -19.4248219  11.2418699   5.1845355 -19.6203270  11.8191786   5.9364738
 -19.7664452  11.8223257   4.4577861   5.2734475 -23.7847462  18.4283295
   4.4691505 -23.4582615  17.9846439   5.8116527 -24.1011047  17.6954727
  23.6440849  -1.1569993  24.6581726  23.0842400  -1.6114959  25.2886353
  24.4127731  -0.9306291  25.1166267 -26.4718704 -37.1808472   0.5221753
 -25.7769566 -37.6516724   0.0071602 -27.2870731 -37.5660706   0.2546294
 -17.0347691  21.9026718  26.6049747 -16.0451279  21.8781109  26.7079659
 -17.0252571  22.9004688  26.5084038  -6.4310865  38.3200035  30.1295910
  -6.2033420  37.6043167  29.4288044  -6.3783894  39.1306763  29.6373367
 -19.9598331  10.9901628  40.3602257 -20.2472687  10.3166876  40.9272346
 -19.8240223  10.5157919  39.4791298 -18.6349354   4.3189573  -0.2752402
 -18.5218868   4.4691772  -1.2389464 -19.3842869   3.6875622  -0.2450591
 -39.8170204  24.1021004  21.3935261 -38.9930077  24.6212215  21.1059914
 -39.4012756  23.2045135  21.4247417  38.1004105 -18.1408978  -0.6507421
  38.3610611 -17.2951679  -0.2976553  37.5385628 -17.8429146  -1.4075644
 -43.5911865 -13.4892845   2.2669005 -42.6821709 -13.5469799   2.5928748
 -43.8667603 -12.6567087   2.7312665 -44.1049347 -14.5134068 -14.3425303
 -43.2518005 -14.4053259 -14.8165731 -44.6608582 -14.8846989 -15.0361729
  -9.9614954  26.0407028 -38.7868614  -9.9709196  25.3178902 -38.1545067
  -9.8921251  26.8299446 -38.2437706  14.2395983 -41.7306404 -36.3946190
  14.7632179 -41.9595337 -35.5368614  13.6406879 -41.1122932 -36.0292625
  38.8493576  25.4073448   3.4775810  38.6676941  25.4101257   4.4593363
  39.8154716  25.1918468   3.5175078  15.6577024  46.2993965   9.8549290
  16.2994232  46.6668587   9.1916456  15.0848732  45.8246651   9.1149883
  10.4065847  13.3897638  38.2796249  10.8202581  12.9353600  37.4699631
  10.3475904  14.2720928  37.8537254 -28.8126774  -5.0054231   4.0943794
 -29.4072094  -4.9064608   4.8255553 -28.1587143  -4.2659197   4.3296027
 -13.8988991  13.0201130  19.9116554 -14.0327549  13.7055397  20.6114616
 -13.3716097  13.5463161  19.2613068 -24.4214535  -6.6982937  25.9801426
 -24.0917625  -7.5839128  25.7370796 -24.9448586  -6.9142499  26.7642498
 -40.0475426   5.8587823  27.7875366 -39.6253891   5.2014704  28.3762321
 -40.9215927   5.8640556  28.1932201   4.8745418  41.1923141  15.6439676
   5.7286320  40.7844963  15.3583794   4.4781852  41.3532219  14.6910543
 -13.7596197 -23.0899067  20.9773655 -13.9042358 -23.8366108  20.3362370
 -14.6627245 -22.9970932  21.3462181 -24.1446056  13.8057537  37.3294868
 -24.7446270  14.1509209  36.5549088 -24.3969116  14.5169125  37.9522705
  23.6621571 -38.0143585 -28.8705940  22.9992790 -37.2621918 -28.8336143
  24.3802128 -37.5454140 -29.3701630  -7.6770000  33.3745689 -13.5900755
  -7.5483699  33.6017418 -14.5089817  -7.0851340  34.1160736 -13.1939468
  19.8769550 -38.6434097  22.2657986  19.9447212 -39.4919243  22.7327309
  20.2729225 -38.0237999  22.8021145  34.4989395 -21.7427540 -30.9321423
  34.6193314 -20.7711487 -30.9443760  33.8064461 -21.9086876 -30.2475739
  36.3718300  -1.9081888  -1.2231981  35.8778839  -2.2331178  -0.4260553
  35.6034698  -1.5611057  -1.7381364 -11.1985493  19.7783489  43.5476952
 -10.4559050  19.7092056  44.2363205 -10.5875788  19.5947304  42.7644653
  39.3290329 -17.9327736 -25.8098145  38.6689529 -18.5615616 -25.4924793
  38.8220215 -17.3236027 -26.3455906 -19.1802330 -15.9115076  14.1012316
 -20.1581287 -15.7265282  14.2162714 -19.0825787 -16.6268616  14.7873945
  19.4881630  -6.2836809 -21.5101585  19.2508640  -6.9138479 -22.1619644
  20.3667622  -6.0389509 -21.7863731  25.4227848 -35.8934288 -22.3038101
  26.4044170 -36.0539207 -22.2569122  25.2063236 -36.2994270 -23.1447849
 -35.6518440   2.1956446  17.7378883 -36.5480804   2.2087033  17.5820599
 -35.3612518   3.0500560  17.4347305   1.3580472  27.5829697  23.3547077
   0.3665289  27.4591675  23.4751263   1.4225944  28.1020546  22.5486946
   3.8883569  10.1746073  15.4514437   4.7090082  10.1746492  15.9379234
   3.3826506  10.9236689  15.9290562  11.7940817  21.6474304  -2.7056346
  12.1187696  20.7552567  -2.3542922  10.9386292  21.6554413  -2.2091799
  -5.5182166  43.8172836 -26.6499405  -6.0744228  43.0970764 -26.7082920
  -5.8473625  44.5491333 -27.1902008   2.5604398   9.7797651 -30.2004967
   3.4474771  10.0150661 -30.1658134   2.5427861   8.8432837 -30.4666519
   2.6819875 -34.7917747 -31.0181236   3.0406959 -33.9512558 -31.3204346
   1.9886308 -34.4581146 -30.3994350   6.7287946  34.5474205 -13.4455137
   7.7504396  34.4598808 -13.3292656   6.4533701  34.2751122 -12.5810366
   7.1187716  21.6749821 -22.4993324   7.4820504  22.2077694 -23.2220745
   7.5362782  20.8374748 -22.6451607  -3.1631789   8.1193285 -45.1597481
  -3.7939425   8.8173132 -45.0210457  -2.8048067   7.9996109 -44.2722511
  -4.8891678 -29.2571735  17.8903542  -5.5082264 -30.0327644  17.8126144
  -5.3498363 -28.6772556  17.2362671  -4.6725802 -34.0894737  17.9767017
  -5.6026297 -33.9911690  18.3022022  -4.2012367 -34.0931320  18.8416348
  30.9825211 -36.1612129 -16.9469528  31.0814056 -35.2286530 -17.2707253
  31.1622562 -36.6630669 -17.7696743   1.0161027  36.3397179   1.3227487
   1.8278668  35.8263512   1.5488256   1.2342055  36.5339355   0.3431023
 -14.3082638  31.8959312  41.6502838 -13.5556583  32.4617958  41.7115593
 -14.9520111  32.4452477  41.1230927  40.1034393  -7.2927408   3.4392180
  40.3794594  -7.4593534   2.5257051  40.7905807  -7.6855860   3.9918053
  31.4840317 -30.8447495  22.3516445  30.6699829 -31.2965698  22.5394421
  31.0191422 -30.0470753  21.9184628   1.9117600 -17.4616394 -44.0520058
   1.9164927 -16.6715069 -44.6364555   1.4111476 -18.0600033 -44.6094780
  41.4874802   6.8510008 -29.6592770  41.2500648   6.0506902 -30.1462994
  42.0959778   7.2918830 -30.2334747   8.7268839  28.0474415   2.4685471
   8.6096725  27.0449753   2.7363651   7.8846998  28.0264759   1.8692360
  10.4618483  47.9097672 -21.0818024  10.0837488  48.6098099 -20.5625572
   9.6142559  47.5658417 -21.5164909 -27.4779987 -23.4320259 -25.0701141
 -28.1700630 -24.1287937 -24.9439774 -26.8454704 -23.7184029 -24.3539600
 -13.3646250  30.8735924  14.1661224 -13.3763552  29.8474083  14.2635899
 -12.3394756  30.8729038  14.2288485   3.0611873  33.0347252  31.6746178
   3.4939461  33.1254463  32.5673561   2.8856714  32.0712318  31.7539616
  -6.4955735   1.9064139 -11.5779467  -6.8592682   1.1212039 -12.0451212
  -6.2292638   2.4347386 -12.3193007  30.7534332  -3.6739900  10.4633064
  30.3428097  -3.5868249   9.5432405  31.3845215  -2.8858941  10.3744593
   2.8081324 -19.5370865   7.3624153   2.3922541 -18.9896164   8.1012411
   3.7609000 -19.4235573   7.7139235   2.5747321 -20.5515804 -42.1748772
   2.8099849 -19.6171665 -41.8592720   3.2893696 -21.0464077 -41.7008553
  16.6817913  -5.3166118  10.8032713  15.8334484  -5.0829511  10.6486511
  16.6665726  -6.2059684  11.1501560  19.0299568  30.0290241  10.8988791
  18.6771736  30.6080532  10.2044945  18.3745155  29.2914639  10.8052826
  -6.5594864  -4.2668076  34.7671661  -6.9832249  -4.8529043  35.4338837
  -7.2954302  -3.7886474  34.4038582 -18.6796608  34.3542824 -36.9212494
 -17.8292294  34.7903214 -37.0049133 -18.8080997  34.0195427 -37.8453789
 -38.3665543  23.7397614  -5.4347372 -38.9559937  23.8028793  -6.1634007
 -38.7888451  22.9999428  -4.9459672  35.4075928   2.3559539  19.9340343
  35.1421852   2.0945542  18.9893742  35.0056877   3.2508163  19.9597282
   6.9758234 -23.9372940 -42.5670052   7.2176647 -24.8677654 -42.6529045
   7.8479390 -23.4820461 -42.6722260  25.9793339  26.4983139 -21.0315475
  26.6435509  26.1002121 -20.4504719  26.5482845  26.9844189 -21.6893005
  12.7225866  18.0339184  -7.1096897  12.2035532  17.3102913  -6.5952082
  13.1470070  17.4226379  -7.7459850  30.2920952  24.4777870  -6.8546128
  30.7877979  24.6155663  -7.6868148  29.4823761  24.0799236  -7.1058221
  -4.9763279  43.2605438  29.5911007  -4.3013959  43.1083755  30.2710514
  -4.5069122  42.9914055  28.7487736  -4.6396613  -6.3816156  -5.4224668
  -3.7693293  -6.8243551  -5.7157135  -4.7207088  -6.9443355  -4.6055269
  -4.3918238  21.5458794  41.2721367  -5.2658377  21.6484890  40.9400787
  -3.7815499  21.7294827  40.5137253 -36.1344376 -12.5502634  -8.6142225
 -36.0262756 -12.6895924  -7.5981264 -37.0504341 -12.1390619  -8.6101370
   0.0951320 -44.1554642  -2.4406261  -0.6013044 -44.8531113  -2.6321535
   0.8820974 -44.5925674  -2.8438606  -3.3709064   8.5137758 -20.8640938
  -3.5059042   9.3166475 -20.2856312  -2.4038205   8.5279512 -20.9400673
  27.6158371  -8.2478313  15.1044159  28.0246220  -9.0415812  15.4867849
  27.0960941  -7.9206724  15.8440790 -34.8380585 -19.1906109   6.9013305
 -34.3351059 -20.0267925   6.6736875 -35.1385841 -18.9049416   6.0557079
  26.8013248  -8.6569710  31.7963123  26.3506565  -8.5455179  30.9014111
  27.5359783  -7.9508948  31.6633587  12.3153839 -14.3824062 -31.5872040
  12.7513199 -14.6005077 -32.4709854  12.7036543 -13.5384750 -31.3123188
 -39.4533577  19.0224819  19.4057255 -38.7093849  18.5631599  19.8755913
 -39.8580551  18.2689400  18.9164066 -13.0785627  22.1576138 -31.3072834
 -12.2415142  22.1204243 -31.7562275 -13.7431421  21.9842415 -31.9743919
 -19.9624958  37.6035538   1.2880071 -19.1470966  37.7512245   0.8624282
 -20.1935654  36.7481499   0.8289148   0.8386822  -0.0070272 -26.8953114
   1.1366733   0.3792945 -27.7191429   1.5100758  -0.6824484 -26.6953144
  22.9712315   4.7146454   5.6279802  23.6137791   5.2795286   6.1765137
  23.6251831   4.1320577   5.1984000  16.1376610  21.6047382 -14.8702946
  15.4882946  21.2594337 -14.2767887  16.8526878  20.9205742 -14.8685837
  41.9976616  -0.0063484  -1.5210991  41.2176552   0.5999937  -1.3400717
  41.8354950  -0.7156528  -0.8504086   5.4518299 -26.8845081  20.1765881
   5.9891901 -26.1273727  19.8428097   6.0250912 -27.4644318  20.6211357
  -9.4990101 -27.2324753  13.4975471 -10.3195372 -27.7386837  13.2329140
  -9.6879807 -27.1158352  14.4270382   5.0385132  25.7690887 -31.1876926
   5.8024621  25.7232246 -30.6064072   5.4465532  25.4840145 -32.0358391
  42.3207626  22.1509724 -23.9209461  43.0925064  21.9855423 -24.4748306
  42.3652382  21.3408966 -23.3581619  11.1342173   0.5283774  28.0622311
  11.3872194   0.7686136  28.9986649  11.5390358  -0.3520710  28.0372887
  21.6238556  42.8281708   1.9270763  22.4171257  43.3879280   1.6577282
  22.0640869  42.1272469   2.4175196  30.9945107 -34.7672424  23.3846073
  31.3626747 -34.8204765  24.3082657  30.8900757 -35.7173538  23.2262325
  20.3299904 -24.6233082  28.4237213  21.2030430 -24.5644417  28.9289722
  19.8417854 -23.9975147  28.9612656  42.3075829 -27.3647518   7.9167333
  42.1992378 -27.1994705   8.8949146  43.2539062 -27.2149754   7.7682581
  33.1561737 -22.7004471   3.4529569  32.3879089 -22.4647408   2.7561240
  32.9952011 -23.6698818   3.4236438 -43.0916138  -5.1586609  -7.7921448
 -43.3431473  -5.9992280  -7.3826957 -42.6714554  -5.4212723  -8.6323595
  15.1807680  17.2773209  38.3302078  14.8377419  16.3420162  38.4820099
  15.6722336  17.0248718  37.4867439 -11.9281311  30.5566635  21.3777180
 -12.0340567  29.6808643  21.9004078 -12.6512766  30.4503670  20.6845989
  17.2614059  -9.9012833   2.6295695  16.5907097 -10.6429996   2.7289841
  16.7901649  -9.4691601   1.8428271  18.0853539 -32.9185829  11.4270296
  18.3110294 -32.0544052  10.9805231  17.3998241 -33.2522812  10.7944679
 -10.5678072   1.9252381  38.3671608  -9.5724277   2.0336843  38.3996162
 -10.8134403   2.8960009  38.2400970  -6.7204165  42.1827240  -9.8609610
  -5.8284774  41.8251305  -9.8794861  -7.0118666  42.1124306 -10.7884617
 -22.2063694 -16.6272907  10.8200464 -21.5523872 -16.0435486  10.4152594
 -22.7857704 -15.9130106  11.2200699  -6.5158510 -23.1098938  -3.7825329
  -6.2744374 -23.7634487  -3.1054389  -6.0374203 -22.3312283  -3.4216056
  -8.9063921 -49.1422806  -4.6713138  -9.8368206 -48.8873825  -4.4067764
  -9.0210123 -49.9674721  -5.1029558  22.8970699  20.7440567 -22.0978088
  22.8092003  21.2680378 -21.2329884  22.0721302  21.0733910 -22.5241489
  -1.2889677  12.7420378  45.1888542  -0.5319711  12.2660923  44.7557449
  -1.5156986  13.3125372  44.4897690  34.2758865 -12.3891087 -26.3848305
  34.6694260 -12.7467299 -25.4881611  35.0192604 -11.8865747 -26.6679649
 -21.4415722 -38.4963875  13.7063465 -20.8201027 -38.9211159  14.3512583
 -21.1801472 -38.9768982  12.8793001 -33.7937164   9.6627960  16.7742271
 -33.2808876  10.3792267  17.1389503 -34.7008018  10.0581684  16.9936390
 -16.7096539 -40.0839844   9.8578033 -16.4384460 -39.1262741  10.0681114
 -15.8703213 -40.3084030   9.3950424 -35.1380348 -12.2615604  24.3745651
 -35.0370789 -11.9359312  25.3101044 -35.5961113 -13.1658802  24.5783024
 -41.2194824  27.1401958 -15.8578062 -40.5960274  27.5885143 -15.2053080
 -40.7790871  26.2678928 -15.7957535   1.7663500   4.7513433  36.0797882
   1.4907974   3.9295146  36.5579834   2.7696328   4.6860271  36.1044083
 -40.4926720  22.5727539 -17.0146122 -40.0759850  21.6871567 -17.0237980
 -40.0976028  22.8658562 -17.8906040 -35.1312485 -22.7723675 -22.8751354
 -34.6407814 -22.4753380 -23.6888046 -35.6109390 -23.5285015 -23.2108593
  -5.5227809   7.1111851  36.5881615  -6.3830066   7.0087819  37.0773392
  -4.9345565   7.1143708  37.3993111 -18.7520065 -41.9970398  -7.4824286
 -18.5969143 -42.7942276  -6.9959545 -18.6874542 -41.3264999  -6.7063999
  -1.6639270 -29.3508835 -15.2990122  -2.1191094 -30.2016010 -15.6196175
  -2.2124670 -28.7240372 -15.8268509 -14.6806068  15.3619423  14.7102594
 -13.9769545  15.5714207  15.3603325 -14.4575634  16.0015545  13.9952173
  14.5655718   8.1252365  26.7587814  14.9385529   7.6608310  26.0121155
  14.9152412   9.0427713  26.6230011  -9.8406210   5.9647055 -39.5347366
 -10.5372896   5.3135233 -39.3401604  -9.0853596   5.5548315 -39.2036858
  -8.7169971 -44.9460907  -4.2531443  -8.5993853 -44.2151871  -4.9239035
  -8.2456083 -45.6842995  -4.7311263  -8.8586998 -25.9155636 -11.1963978
  -8.6387091 -25.1026306 -10.7274256  -8.5419979 -25.6346149 -12.0926905
 -23.2926521   7.8193483  13.3760300 -23.5190105   8.1007833  12.4374399
 -23.9257984   7.1311922  13.4606237   2.9576788 -10.5738392  12.8815346
   3.0627873  -9.5814810  12.7093458   2.5195913 -10.4630079  13.7645226
  23.9233475   9.9940872 -24.1917667  24.6144943   9.3212500 -24.0507946
  24.1786060  10.3704472 -25.0861435   9.6996317 -23.3632717  30.0666122
   9.6641426 -22.9389954  29.1271992  10.6701279 -23.5049877  30.0667839
   3.9730942   4.3842597  18.6760731   3.1710763   4.6626215  18.2037468
   3.7381139   3.4719484  18.9648666 -20.4818172 -12.4154711   9.2282009
 -20.1689796 -11.7913132   9.9234514 -20.7387848 -11.7897730   8.4955769
   5.5657086  19.6790600  40.6232147   5.8306708  20.3758698  40.0121498
   6.4561501  19.2679100  40.7984123 -10.2712765 -17.3839588  32.7618332
 -10.7182093 -17.7889271  32.0104713  -9.4005222 -17.1457767  32.3509216
 -21.5048351   5.9533749  38.2248764 -21.4697781   5.2139006  37.5445175
 -21.0474491   5.4779310  38.9976234 -41.0484314   1.2827847 -24.9074383
 -40.4440727   0.4548484 -25.1089878 -41.7720566   0.6179525 -24.5738525
  -2.0800562  40.6762657  -1.5756061  -2.9047263  40.7182655  -1.0071728
  -2.2350588  41.3942566  -2.1659222  40.5393791 -16.4722347   1.5723028
  40.7676353 -15.5433807   1.7529008  40.9772415 -16.8892536   2.3325195
  -4.3656578 -21.4393158  -5.2296166  -4.6060977 -21.1901379  -4.3449321
  -4.1409039 -22.3712921  -5.1463604 -37.3740082   0.3165439 -31.9483910
 -37.4646683   1.2845998 -31.8148632 -37.7934380   0.2731858 -32.8408394
 -19.8604469 -48.2229042 -11.5875225 -19.3291836 -48.6090317 -12.3436213
 -19.1453838 -47.8893967 -11.0396357   5.9343162  29.4859295   6.7261844
   6.7908759  29.5264206   6.3050885   5.3565989  29.8796043   6.0644932
  -2.6341732 -10.0762749  26.7948360  -2.7859583 -10.3499708  25.8679314
  -2.1659565  -9.2641287  26.7438526 -11.6219101 -33.7559624   6.1701217
 -11.7670479 -33.5867805   7.1264334 -10.6328049 -33.8206100   6.1848822
   3.6550276 -26.8724880 -40.0361404   3.4062614 -26.3786583 -39.1995010
   3.0993681 -26.3180790 -40.6527596 -24.0116138 -23.4236279  16.4963932
 -23.1561508 -23.6152077  16.8999805 -24.2985802 -24.2891979  16.1444759
 -25.2935181  -3.7315178  -5.1231976 -26.0205193  -4.0029082  -5.7943864
 -25.5068436  -2.8295388  -5.0651631  -1.3799719 -31.9307442   4.5792227
  -2.0100811 -31.2529259   4.8824172  -0.5148061 -31.5046768   4.6279750
  28.1413345  18.6069775  -2.1729784  28.2291317  19.3578167  -2.8420918
  28.3230705  17.8906040  -2.7645702  33.5424004   6.1175165  27.3884792
  33.6897354   7.0988374  27.5648899  33.9427528   5.7462702  28.2161045
  38.2762489 -24.1846046  -9.6447315  38.7066231 -24.9493084  -9.9471989
  37.5661926 -24.0456409 -10.3111105  20.0661926  47.7311363  -0.1254698
  19.8745384  47.1216431  -0.8681659  21.0007248  47.9583397  -0.3683862
  14.9482841  33.8351936   1.3304131  15.4336052  33.4771118   0.6086993
  14.0437803  33.5186005   1.1757149 -15.7862816   8.3611040 -45.2301292
 -16.0596790   9.2344141 -45.6100426 -16.1361237   7.7197547 -45.9457664
   8.5695782  29.3324223  24.3254337   7.7663679  28.8118668  24.4720783
   8.3348322  29.7091427  23.4593277   9.1947994   0.5225967  21.7235985
   9.9619751   1.1348442  21.7892494   9.5227747  -0.3072649  22.0762310
 -27.3127918   7.1650472 -37.4280128 -26.9225521   7.6907015 -38.1486092
 -28.1801929   6.9624691 -37.7885780   2.6367941   0.1081533  43.5056114
   2.9721196  -0.3120361  42.6029587   3.1448238  -0.4008695  44.0774078
  42.9654274  27.3295403 -14.7585726  43.2964439  26.6876507 -15.4267149
  42.5668869  26.7165146 -14.1101332  27.5401802  11.5668612  10.4869881
  28.3001041  11.2718534  10.9794245  27.9495316  12.0885124   9.7317276
 -15.2251530  15.2179775 -48.8040009 -14.6838636  16.0136051 -48.9238625
 -15.5745153  15.3881617 -47.9452019  10.6834192  -4.4574633  28.1570034
  10.2607546  -4.5190220  29.0194130  11.2510557  -5.2454991  28.1305046
  -9.4894371 -48.4210854  -1.1647878  -9.8081303 -49.2766342  -0.7721738
 -10.3356361 -47.9697304  -1.3766000 -41.8914223 -10.8761091  23.4773369
 -42.5374756 -10.1410036  23.4101696 -41.0782356 -10.3611736  23.5134468
 -17.6708412  14.0119076  -3.2129087 -17.5763817  13.1355257  -2.6988001
 -17.3748093  13.6647224  -4.1021752  -2.9268284  -2.1479144 -30.5562248
  -2.6169007  -1.5268128 -29.9194298  -3.6189260  -1.5949867 -31.0488548
   6.1523466   7.9883504 -25.6594906   5.4776635   8.5348415 -26.0721664
   5.6164246   7.3786645 -25.1125317 -34.7656746 -33.3198471   6.4189563
 -34.8996925 -34.0318108   7.0849681 -34.8586464 -32.5380516   7.0017376
 -10.2107811  16.3414745 -12.2396040 -11.0622234  16.6984348 -12.2089243
  -9.8775520  16.5969563 -11.3413219   6.6899085   3.3091133 -29.4810066
   6.3947425   3.3259203 -30.4169273   7.6245985   2.9954493 -29.5973549
 -23.7977467  36.0904160  -6.5390196 -24.3178577  35.5685005  -5.8608794
 -24.4956398  36.5630875  -7.0125756 -15.1267586 -33.7194023  -5.6222734
 -15.6955185 -33.9776192  -4.8857555 -15.8605976 -33.6669960  -6.2992954
 -33.0294571   0.5553887 -41.0264320 -32.5287056   0.0142337 -41.6665230
 -32.7105637   0.1616470 -40.1830788 -23.8990326 -20.6988354   0.3940575
 -24.1442032 -19.7176228   0.4027301 -23.1513634 -20.6615925   1.0544291
 -20.5114098 -28.0509186  11.6006346 -19.7149029 -28.2278404  12.0676289
 -20.5860748 -28.9438992  11.1344309  23.4660816  -5.6060500 -36.9633751
  23.0613060  -4.9733872 -37.5975037  22.6862831  -5.7520175 -36.3942337
 -23.5707035  -8.8714600  12.1297064 -22.9267845  -9.3461523  12.7161427
 -24.3628807  -9.4453735  12.3117075  17.7177773 -39.7446823 -10.8195219
  17.3103733 -40.3596306 -11.4082365  17.8779621 -38.9469147 -11.3040752
  -8.7013340  32.8085175  14.2983160  -7.8034968  33.1729088  14.0673532
  -8.7620621  33.0607033  15.2463846  15.9489183  -8.0494156  38.0135231
  16.3699112  -8.8540421  37.7618904  15.8828430  -7.6636620  37.0545197
 -26.6518669 -18.8832264   9.8335943 -26.1936855 -19.1272717   8.9991226
 -27.5573578 -19.2510605   9.7261248  26.4678822  -2.9888117  10.8480082
  27.3143883  -3.4808853  10.8846397  26.5296249  -2.5378244  10.0288353
  -8.9583826 -34.8353615   1.9630905  -9.2011642 -33.8720436   2.0430062
  -8.2574081 -34.8236542   2.6820762 -31.3180561 -12.1408205  17.6155109
 -31.3698349 -11.5194654  16.8981075 -30.8793716 -12.9287539  17.1738834
 -37.8994904  22.9630852  25.1497993 -37.7655716  23.7361279  24.4916229
 -38.2706451  22.3531380  24.5518684 -24.7087402  12.3336363  -2.8197591
 -25.4104671  12.0030718  -3.4639587 -24.6214142  11.5402775  -2.2707791
 -17.6902447 -39.8497925  -9.0650978 -18.1907158 -40.3527107  -8.4144640
 -18.3483582 -39.2850876  -9.5141306   9.2432909  -4.9903898 -25.3469086
   9.5086403  -4.4897857 -26.1681786   8.2700224  -5.0150332 -25.5099316
  -2.4245832  -6.7674198 -24.5092049  -1.9623710  -7.4571552 -25.0583458
  -3.2320647  -6.6846142 -24.9916248   6.9228640  -2.0642025 -49.5700951
   7.0335889  -1.1331580 -49.3231239   7.2313490  -2.1220055 -50.4669991
 -25.0779724  -5.5511789   1.5366069 -24.6690102  -5.5619411   0.7026821
 -25.3253098  -4.6171780   1.6868579  11.9298029 -32.0295410  13.3556128
  11.4527712 -32.8465996  13.6073627  11.6939459 -32.0676956  12.3644381
  11.8280458  -7.5831485 -27.3344002  11.7121668  -6.9822140 -28.1161957
  12.2328348  -6.9263015 -26.7471333   2.3885305 -16.2413902 -30.4575577
   1.8802999 -17.0116329 -30.9093800   2.3630180 -16.5650024 -29.5378189
  17.4646549 -17.8849392  14.4374170  17.9757099 -17.4179764  15.1431255
  17.9977169 -18.6945496  14.3800840  -2.8847182  -3.9076328 -16.2857361
  -2.2606599  -3.4841547 -15.6108389  -2.2851906  -4.1342521 -16.9900570
  39.5021629  -6.6994424  15.1426973  38.7057800  -6.1746173  14.7873955
  40.2022552  -6.5320816  14.5045900 -28.7280388  23.2463512 -11.4624071
 -27.9623756  23.2118587 -12.0105801 -29.1528797  22.3840199 -11.7133541
  14.7205715  -6.7484589 -39.9608345  14.5695457  -6.3913598 -39.0862274
  15.6486483  -6.6710224 -40.0574760  34.7706795  34.1692924  19.9451523
  33.8317757  34.1242027  19.8712673  34.9115829  34.4130478  20.9166431
   4.3959775  27.0774689  29.1548023   3.4608264  27.0415764  29.4607639
   4.2105742  27.2559872  28.1729069  20.1283016 -15.7290754  31.1211529
  20.1558514 -14.8338451  30.6240635  21.0416241 -16.0654831  30.9575272
 -10.6569223  21.9527950  -3.8506606 -10.4728165  22.5220814  -4.7005606
 -11.1178684  21.2481480  -4.3940868   8.0489349  10.0263166  28.9781456
   7.8789377  10.6424026  28.2567577   7.1528554   9.9499302  29.4218140
  18.1802120 -22.8429966  32.6621132  18.2194920 -23.0423393  33.6174583
  18.9064484 -22.1819592  32.6504364 -26.8624172  29.7652836   5.5867982
 -25.9477921  29.6384583   5.8056817 -27.1137333  30.3745804   6.3200006
   3.7490745  27.3283539 -34.4731407   4.5162830  27.9462357 -34.4590149
   4.0835629  26.6666641 -35.1256218  13.4730606   5.8044415  45.0886765
  12.7650957   5.7928543  44.4234123  14.2377853   5.3871264  44.5412407
  -5.7112026 -19.5359592   8.0113888  -6.3374825 -20.2748318   7.8874626
  -6.1910658 -19.0867062   8.8001385 -18.8990440  32.7205772 -33.0991020
 -18.0027103  32.7259674 -33.4975777 -18.8538513  31.8308849 -32.5957909
 -17.4793777  -0.5539967   9.0503054 -17.0324516  -0.7895397   9.8919792
 -17.0124340  -1.0408567   8.4073420  30.1311760  20.5125370   1.2291328
  30.6619720  21.3221626   1.0967395  29.2533112  20.8242970   0.9505149
  25.8364487  23.4842758  10.7245131  25.0190773  24.0013866  10.6904373
  25.4319153  22.5682583  10.6747675 -17.8624191 -24.7601585  10.0666246
 -18.8025742 -24.8378696   9.8884535 -17.6417656 -25.6869144  10.3493671
  10.6971207  34.7138939   9.7256937  11.6479588  34.5457306   9.7465019
  10.6270065  35.1162758   8.8170996 -27.5771370  35.2929306  27.6470776
 -28.3937569  35.7644310  27.3421478 -27.5257454  35.6983261  28.5449944
   2.6710675 -26.8500080  23.5059242   3.5692811 -26.3499565  23.6299324
   2.4825571 -26.9365349  24.4787769  40.4681015  -0.8691882 -27.5763912
  40.1223183  -0.6080192 -26.7164268  41.1491623  -0.1217885 -27.6474285
 -18.1905518  25.1791039 -24.2615356 -18.1225872  25.2605495 -25.2931671
 -17.3125610  24.8219929 -24.1285362 -35.2929230  -3.6653345  25.0613289
 -34.3438530  -3.7697608  24.8963299 -35.6527596  -4.0845542  24.2777748
 -10.5573177   9.4869404  27.3579483 -11.2409296   9.3698626  27.9652786
 -10.9573545   9.3128424  26.4668980 -26.3333397  -4.1266541 -32.7424126
 -26.4288673  -3.5638299 -31.9146290 -25.4710941  -3.8064959 -33.0487404
  23.0307636 -26.1778660  29.0435257  23.3229275 -26.9833050  29.4775944
  23.8660660 -25.6482010  29.0447521   8.1837673  48.7499390   6.8487043
   8.1287098  49.6718292   6.6846833   7.4794922  48.3463249   6.3061767
   3.9510312 -37.4723549  25.4726982   3.0068171 -37.3983994  25.7298985
   4.3921862 -37.6654434  26.3165379 -31.9999866   4.2627745 -21.8055592
 -31.9356232   3.4602854 -21.2370472 -31.0496979   4.3881841 -22.0688972
 -11.0282879 -42.5850410 -15.1630983 -10.0887566 -42.5994682 -15.1255627
 -11.2763414 -43.4986877 -15.2747602 -15.6685505 -21.0691433 -21.7112122
 -16.3942642 -21.6939011 -21.6040688 -14.9825687 -21.5915527 -21.1937733
  28.6625919  33.5372162  15.7860546  28.1614647  34.2148323  15.2835970
  28.9949608  32.9476357  15.0622635 -13.8333578  -1.9376212  35.6646042
 -13.0914516  -2.6093950  35.7718620 -14.0109015  -1.7378846  36.6102867
  -1.2656943   4.2386651 -44.8553543  -0.9966909   4.0090680 -45.7848625
  -0.5983184   4.9155202 -44.6300163 -43.0013962   0.7591769   2.9804170
 -43.4704323   1.1249247   3.7828081 -43.6258545   0.0896016   2.7404346
  16.9658279  -5.1745958 -18.5488873  17.0734310  -4.7707109 -19.4925575
  16.4617748  -5.9527431 -18.8614197   1.1010666  12.9590149  37.6518936
   1.7448810  12.1889019  37.5867691   0.8069589  12.8770037  38.5541382
 -30.5153313   0.1397487 -26.0443020 -29.6544247   0.6103622 -25.9984131
 -30.9967728   0.8581859 -26.5433617 -22.6687069  28.4086666 -34.7088051
 -22.8633080  28.5492020 -35.7060013 -21.7048836  28.1573544 -34.9186897
 -11.3488712 -24.4775791  31.1067123 -10.5534468 -24.0172997  31.5557537
 -11.5738153 -23.8599739  30.4059448 -21.3436928   8.9754038 -34.9235649
 -21.7110901   9.1039619 -34.0583763 -20.7926178   8.1375265 -34.7730560
 -36.5283356  -4.4797568   2.9953866 -37.1881561  -4.5086703   2.2754498
 -35.7359695  -4.5467210   2.5032048 -41.6495819  -0.3912170 -17.8957214
 -41.8310394  -0.7016433 -18.7405949 -40.7680397   0.0406770 -18.0293922
   5.2728300 -32.8671036  -3.8459823   5.8337636 -33.5867920  -4.3107786
   5.9678597 -32.4474449  -3.3662651 -32.6214447  12.3927860   3.9891031
 -33.5098686  12.1246977   4.2803245 -32.1547241  11.5431290   4.1220112
  13.5538759  43.7739258 -14.4437733  13.7322206  42.8047256 -14.2331238
  13.4756832  43.7294693 -15.3822250  19.9029121 -10.0404816  17.3685913
  20.7860222  -9.6065645  17.2015610  20.1792088 -10.5789423  18.1946659
  -9.7708941  38.5427666 -33.0266991  -8.8058195  38.5372276 -32.9827309
  -9.9518490  37.6437187 -32.6979599  38.2186203  -5.5048614   2.5788372
  38.8270988  -5.4352112   1.8545908  38.7175522  -6.1337028   3.1493700
 -12.7407436  41.4932938  17.8917789 -13.3306246  42.0338020  17.3401051
 -12.0162449  42.0870056  18.0765629   5.1594820 -42.7845383  -3.2993267
   4.2595558 -42.8223305  -2.8737922   5.5291524 -43.6449165  -3.0323200
  10.6806469  44.9144783  -3.6754546  11.4005756  44.3896561  -4.0535727
  11.1797791  45.6379356  -3.2795572 -36.1865044  19.8006268  16.3036366
 -36.1061325  20.3465137  17.0975304 -36.5581551  20.4018116  15.6398706
 -26.9421558   0.6669438 -28.7610207 -26.7117062  -0.1820717 -28.3506775
 -26.0670452   1.0875390 -28.8592548  -1.9138896  28.6403046 -16.5908432
  -1.9208716  28.5109425 -15.6421824  -2.6408751  29.2304211 -16.7091541
   9.1315966  -5.4991322 -53.0208092   9.1688566  -6.4089961 -53.2935333
   9.6829853  -5.5613208 -52.1494675  -2.7683709  19.3912296 -12.1310740
  -3.4927788  19.3310394 -11.4990005  -3.2795448  19.4034042 -12.9790268
 -12.5116472  20.7083759 -40.5420647 -12.1924095  21.6700420 -40.6859398
 -11.7857237  20.2543697 -40.9452629 -35.9674530 -14.9542246  -2.7389138
 -36.4432640 -14.2124548  -2.2948020 -35.3398781 -14.4528284  -3.2440245
  -9.8533430 -26.8260098   8.4876404 -10.4761286 -27.2025414   9.1121550
 -10.2964067 -26.9400406   7.6406908  24.6194496   1.6358718  10.7889900
  25.3712292   1.5150610  11.3184299  24.6575184   0.9387496  10.1752748
 -40.2037735  -2.3697801   3.0072398 -39.3502045  -2.8177066   3.0931442
 -40.0060501  -1.4533732   3.2654123  17.2788315  15.2513666  21.2623863
  17.9467812  14.5275755  21.1149654  16.6950760  14.7974882  21.9068680
 -13.1048708  26.9245090  10.0024920 -12.3115091  26.5393620   9.5484734
 -12.6184206  27.6183357  10.5535307 -25.2748280  30.7664585   3.0678470
 -26.0042610  30.6863880   2.4220564 -25.7582912  30.4616814   3.9121213
 -30.9060745  31.7083321   6.5033555 -31.5264072  32.1059723   7.1144371
 -30.1257172  32.2411690   6.5901065  11.1762724 -38.1385231   5.8649130
  10.8721619 -38.3010788   6.7634344  10.7442694 -37.3384781   5.6015134
 -34.3646202 -19.4047394  12.9435062 -34.6055260 -18.7221737  13.5918579
 -33.4149857 -19.5186024  13.0532703  13.7178583  -6.0507288  36.5234337
  14.5684986  -6.3953352  36.1060219  13.9642496  -5.1003051  36.6883469
 -22.2672729   1.0057813 -15.0942583 -21.8266754   0.2074383 -14.7947111
 -23.0694008   0.6341894 -15.4803362  -2.5048954  45.6872482  -2.4278812
  -3.0345647  46.2527695  -1.8317240  -1.9129565  45.1555595  -1.8377420
  14.2853060  -7.3205810 -43.4188957  14.4030342  -6.4143319 -43.6075134
  14.4961233  -7.7916183 -44.2659988 -43.3817101  -8.3486156  26.6216908
 -42.3934174  -8.2265549  26.6843910 -43.4620438  -9.2909651  26.5961132
   2.2261052  15.7180653 -16.9827213   1.9477373  16.5298080 -16.5153751
   1.4279773  15.5691538 -17.5575066 -32.1040344 -30.0018234   8.6463737
 -32.5008926 -30.5657768   7.8915195 -32.7167931 -30.3395233   9.3658323
  19.9203358 -10.6973724   2.0990086  19.0223713 -10.4434919   2.3192310
  20.0690384 -11.4402466   2.6611705  -0.8347571  -5.0328684 -18.0780907
  -0.5320151  -4.5580025 -18.8889046  -1.1633204  -5.8475904 -18.5033875
  35.4105148 -17.0985832  19.8061256  35.8256683 -17.4076862  18.9632568
  34.4453316 -17.1901855  19.5890846  21.3306656   1.7836196  12.9743462
  21.8198223   0.9436052  12.8646288  20.9840450   1.6664633  13.9091349
 -39.7372169  19.7944412   4.9591770 -39.5382500  18.8590183   4.9595447
 -40.3551407  19.8641911   4.2248878   9.4343100  45.0023079  18.3006439
   9.2694788  45.6811142  19.0212440  10.3561068  45.0524712  18.2002068
   8.5789776  10.5427370  -0.2066626   8.8249807  10.3897095   0.7636964
   9.5024824  10.4186115  -0.6022402   1.0251108 -41.7954102 -16.5955124
   1.9947054 -41.8778572 -16.3263607   0.7955894 -42.7801476 -16.6824245
  10.6326885 -42.4295998 -10.5781717   9.7851877 -42.3254128 -10.0597706
  11.1277390 -43.0127563  -9.9738321   6.3887172  -5.2553964 -22.1108589
   5.9905033  -4.6852908 -21.4186821   6.1873775  -4.7031522 -22.8668137
   8.4996128  18.8314495  16.9810696   8.9495487  19.2573013  16.2699432
   8.7672310  19.3369846  17.7455349   0.3173101  14.2059040  28.1148720
   0.5287353  15.2055664  27.9849148  -0.2144444  14.0874310  27.2564754
  -3.3731205  28.2631741 -26.1769276  -3.7384255  27.8651581 -25.4127808
  -3.0041630  29.0677299 -25.8199177 -12.6383028  20.6437683 -18.0863247
 -12.8739443  20.3311615 -17.1482143 -12.2477808  19.7797184 -18.3765984
  -8.3606739  10.0337210 -28.8210316  -9.2076445   9.5219278 -28.9530067
  -8.6470346  10.6150150 -28.0775604  16.1710567  -7.1630673  -8.6200352
  15.4170084  -6.6457295  -8.8446302  15.9759789  -7.3240600  -7.6270566
  19.7450275  -2.5126328  39.5264282  19.1313400  -1.6969556  39.5373878
  20.2338524  -2.2650461  40.3264236  22.6952324  20.1684837 -29.8450909
  22.9350262  19.2730217 -29.4829865  22.2520676  20.5793686 -29.0775223
 -26.7204857  25.2631569  -0.8966672 -27.6298847  24.9632435  -0.9392480
 -26.4862385  25.1260166   0.0448197   3.3427773   1.9317501   7.7114964
   2.6299422   1.4205215   8.0625439   3.0671685   2.0958745   6.7820134
  -9.5449419  41.0540199  15.0988035  -8.8929005  40.4060097  14.9184666
 -10.3578825  40.5980415  15.3315649  36.6620560  -5.5761704 -13.8643723
  36.5892944  -4.7445021 -14.4220886  36.1708260  -5.2126608 -13.0759878
  24.8495522  29.5751820 -21.6343956  25.3882351  29.3419609 -22.4566441
  24.0045204  29.1566467 -21.9316006  17.1778584 -23.0465832  -5.2185488
  16.7373657 -22.1949902  -5.1122470  16.8606434 -23.2355881  -6.1306434
  37.5464249  15.4518433  27.9344654  37.4073792  14.4936495  27.7124844
  37.8120384  15.2985668  28.9027653 -27.6974812 -12.4728594  30.2377262
 -26.9523468 -11.7980700  30.3311005 -27.8270569 -12.7391939  31.1787415
   6.1902671 -15.4089308  17.8881645   5.4513979 -16.0289478  18.1820374
   6.6879611 -15.3528194  18.6974926  30.0541744 -34.4741325  -0.0916240
  29.1684952 -34.4059334   0.3393445  29.8859615 -33.7269859  -0.7737522
  18.6426067 -11.6073828  46.5094757  18.1171417 -11.6260920  45.7059669
  19.1572151 -12.4172020  46.3643456 -29.1929760  -8.5549107 -20.9037628
 -29.2046204  -9.2800083 -21.5499687 -28.3792477  -8.0838776 -21.2302113
 -31.8426094   6.1607080 -25.4858017 -32.6995468   6.0667644 -25.9814701
 -31.3021107   5.6014276 -26.1128311 -17.9892044  10.2245178 -42.6860199
 -17.9666042   9.3392162 -42.2785721 -17.2895260  10.6457014 -42.1886063
 -33.8848076  25.1778431  10.6352711 -34.1890907  25.9029160  10.1072092
 -33.4147835  25.6378880  11.2965126   9.7906790  -2.9262769  42.7209091
  10.4101448  -3.0123134  41.9419403  10.3344288  -3.4864261  43.3392715
 -20.5833607 -14.9926271   9.2093582 -20.5864391 -13.9916563   9.1443357
 -19.7683926 -15.1350374   9.6938658   3.6139133  11.8388567   2.2929442
   3.2766676  10.9292145   2.5627124   4.3967562  11.5725679   1.7280555
  10.0285263 -25.0894203  -7.3464637  10.2379417 -25.2200871  -8.3358469
  10.5145636 -25.9042149  -7.0012474  12.4617548 -29.8279781  -6.5581274
  12.5853815 -30.1715565  -7.4420452  13.3351908 -29.3625431  -6.4421678
  19.3380280  19.2651253  -6.8544335  19.1854630  20.1103954  -7.2906494
  20.2601604  19.3860531  -6.4327803   5.4922371 -20.8210430   1.5846157
   6.1395340 -21.5089741   1.8313434   4.7355661 -21.2255917   2.0890563
   3.1951628 -39.1512260  -1.9503528   3.0515051 -39.8530769  -2.5824661
   4.0316033 -38.7678490  -2.3666003  23.3989544  29.4637833  25.8064079
  24.2045631  29.0231552  25.5646362  23.0226250  28.7703629  26.4121723
 -19.6828442 -21.3433456 -25.0517311 -20.3880253 -21.7489166 -24.4882145
 -18.9543400 -21.2885704 -24.3977642   8.6069632 -18.2507992  23.7390003
   7.6815071 -18.4023132  23.4691868   9.0135002 -19.0805511  23.4643269
  18.7127552 -35.6803894  17.9222603  18.5792618 -36.3587952  18.6468544
  18.2306652 -34.9340439  18.3631306  27.4772511   5.1461210 -29.7807693
  26.9140396   5.7884464 -30.2227573  27.3254967   4.3197570 -30.3505936
  -4.2778430 -37.6327171   0.4536597  -3.6338458 -38.3152390   0.1143237
  -4.5071678 -38.0323067   1.3089962 -31.0009632 -21.2121048 -13.0221062
 -31.2545052 -20.2374191 -13.0382891 -30.7062683 -21.3090935 -13.9202204
  -3.6074412  -8.1251802   3.7914696  -4.0615220  -7.4588518   3.2649744
  -3.9894130  -8.0382385   4.6912060 -13.1280251 -35.2825546  17.4866753
 -12.3997869 -35.7322121  17.0917549 -12.6255894 -34.5022850  17.8631325
 -37.2828789  -8.2616549  -1.9424286 -37.6649017  -8.1231232  -1.0463262
 -36.3781967  -8.2964144  -1.7911687 -14.1293612 -40.2719383   9.0385075
 -14.3285856 -39.6908379   8.2384882 -13.3280420 -40.6855927   8.7501535
  35.8372154  -8.4584665 -12.3520956  35.6463127  -7.9287043 -13.1382275
  34.9327469  -8.3708324 -11.9220152  11.9555054   4.0601845  -1.7438555
  12.1050034   3.8892658  -2.7011583  11.0421028   4.3570528  -1.7884247
  24.9468555  -6.9289002 -29.4915981  25.0109158  -6.6316543 -30.4055653
  25.8721275  -6.8591700 -29.1613274  25.0311089  37.7335396  10.1015072
  25.2201729  37.2493706   9.2373590  24.5986423  37.0638618  10.6272640
 -38.7613411  -9.1255579 -21.7842007 -38.9223938  -9.3764477 -22.6764412
 -38.6739540  -8.1469107 -21.8023720  28.0717506 -26.8161049 -33.3039665
  28.9263496 -27.1981640 -32.9338226  28.2601299 -26.8451519 -34.2493515
   6.9430470 -28.8425312  39.7625084   6.3828874 -28.3558331  39.1229134
   6.6869459 -29.7886391  39.5980835 -12.3455324  13.2915030  26.5365524
 -13.2843332  13.0879192  26.4927635 -12.2527819  13.5566120  27.4809132
 -18.8828011  10.3557158  28.4009800 -18.8042431  11.1456232  27.7780704
 -18.4725437  10.7697554  29.1752834 -11.4487772 -22.0897408   4.5090899
 -10.5222206 -22.0678368   4.8707709 -11.6499243 -23.0082169   4.5871506
 -43.0926628  21.9625111 -12.0961723 -43.4650650  22.7693138 -11.7264967
 -43.4819412  21.2626362 -11.5247736  14.3064404   8.0456743   4.9115667
  14.1976490   7.8668056   5.8584318  13.4021940   7.9118934   4.5572534
 -24.2728729  33.3849907   9.6163111 -23.3023376  33.1982918   9.5798769
 -24.4373627  33.5969276  10.5348234  -9.2738075  13.9746752  -8.0236549
  -9.3867807  14.1666288  -7.0050845  -8.3074493  13.9602451  -8.0412197
   4.7243743 -11.7737465 -45.0350075   5.2684422 -12.1567688 -45.7960205
   4.8747869 -12.4521713 -44.3462715  15.2076073 -39.6993561 -32.1056709
  16.0472260 -40.1586838 -32.1484261  14.5184574 -40.3243713 -32.2603683
  -5.3470750  43.1017609  10.6891356  -5.1858950  42.2521973  11.1083879
  -6.1447353  42.8916817  10.1146307  17.4449348  -8.1206465  49.1346054
  17.4991913  -8.4238949  50.0302467  16.5758896  -8.5047503  48.9098778
 -12.5296164  36.1340942 -15.2443666 -12.2091894  35.8723488 -14.3020859
 -12.0403481  35.3320694 -15.7119951  -6.7615027  13.9588423  30.9340763
  -6.9041829  14.2589645  31.8715172  -7.3752894  14.5755005  30.5067997
  24.8840237  38.1495132  15.3756666  24.9821987  37.2955666  14.9075146
  23.9256821  38.3781395  15.0672083  -0.4803325   0.5784999  28.6206665
  -0.9535715  -0.3275595  28.5191174  -1.2816739   1.1192528  28.4084644
  15.7639961 -37.1252098 -18.2784729  14.8741636 -37.4788551 -18.6465950
  15.9905987 -36.4600639 -18.9912148 -25.7074184  21.5311680  19.2018127
 -25.1959019  22.0252476  19.9002399 -25.0118427  21.1401443  18.6832809
 -20.0146580 -13.0387936  36.2138672 -20.7397709 -13.2823257  36.8226700
 -20.4266663 -12.3850489  35.6313171 -24.5609646 -36.4114799 -13.4221077
 -24.2916069 -37.2469292 -13.8510523 -23.7275486 -36.0785027 -13.0668335
  13.8082342 -31.6875134  25.3334198  13.9315243 -30.8126221  24.9214821
  12.8759384 -31.6132298  25.6916180  -5.0172272 -21.4380341 -17.6596680
  -4.9994278 -20.6968517 -17.0053463  -5.4102216 -20.9269905 -18.4284935
  37.3485756  18.7551880   5.2661343  37.8725128  18.2191544   4.6576800
  36.5318680  18.1258259   5.4181476 -19.8145161   9.9840231  43.5668602
 -19.6770267  10.6393881  44.2860603 -20.7296181  10.1533890  43.3405342
  -7.4275417  39.6121063   1.5735525  -8.1478882  39.0514069   1.2926769
  -6.7930965  39.4697685   0.8375590  -5.6952596  29.5532970 -22.7359753
  -5.0490999  30.1083565 -23.2258415  -5.3553782  28.6834087 -23.0911922
 -11.4889011 -37.3087654 -15.7219830 -11.1386642 -36.3775368 -15.7795029
 -11.6689253 -37.2574310 -14.6985226 -11.8238535  -3.0571415 -37.0943565
 -12.4119329  -2.7709551 -37.8087006 -10.9535789  -3.0385516 -37.5985718
  10.0795679 -12.2594032  34.2285576   9.5638466 -12.1528072  35.0475960
   9.9072866 -11.4172859  33.7204094  -3.1856477  13.2791281  27.5890102
  -3.4464090  13.2590160  28.5388870  -3.8797879  12.6493635  27.1904793
   1.7216796  40.0953674 -20.6871490   1.7357489  39.1249809 -20.7205315
   1.5932276  40.2535172 -21.6737423  35.3595428 -27.1817493 -19.1556454
  34.5209808 -27.6695671 -18.8775177  35.0953407 -26.9338245 -20.0530720
  43.6508255 -15.4337215  18.7400417  43.7833023 -15.0748262  19.5987720
  44.4464836 -16.0296021  18.6597061  12.5939798  -6.5437088 -48.1998367
  12.3924608  -5.5886083 -48.3636436  13.3618727  -6.4878454 -47.6006889
  22.0377941 -17.0056667 -19.8893852  21.9932556 -17.7596035 -20.4546680
  21.5973377 -17.3821602 -19.0795479  12.1491127  26.8754673  -3.4366436
  11.5960770  26.2080345  -2.9172320  13.0195370  26.5524998  -3.1236391
   4.0188684 -19.1716995  24.3583355   4.3073244 -18.7488155  23.5441055
   4.5824122 -18.6803322  25.0137863 -25.6148396  20.1327839 -26.2779274
 -25.8023453  21.1163673 -26.2813244 -24.6967621  20.1542702 -26.5974426
  -5.9958820 -14.3746328  42.1708641  -5.5374556 -14.4915552  43.0778656
  -5.1646628 -14.4446306  41.6376343  -9.8250227 -38.2425232  -1.8811795
 -10.2992821 -37.4796257  -1.4617746  -9.2339430 -37.7995186  -2.4352744
  44.3026657  10.9658327   3.4805326  43.5807686  10.5726967   4.0202365
  43.8410835  10.8794193   2.5817630   0.2047538 -40.0743561 -10.4978428
  -0.0039431 -41.0335464 -10.2530985  -0.6642677 -39.9968185 -11.0517397
 -30.9208889 -36.7849426   4.8268132 -31.1467743 -36.8958473   3.8802946
 -31.6877365 -36.1835747   5.0805130  28.7347107  -8.0649652 -29.9068604
  28.8239079  -7.3379908 -29.2784538  29.5173302  -8.6226368 -29.5916653
 -22.0337944  -7.3043857 -25.9217796 -22.9576378  -7.1501756 -25.7025108
 -21.6773243  -6.4262571 -25.8481197 -38.6269646 -16.8692989   7.6424775
 -37.9566574 -17.6196671   7.6893353 -39.1735077 -17.2459488   6.9242659
 -35.0565033  -0.7909616  25.6224079 -34.2478065  -0.7064080  25.0975704
 -35.1991615  -1.7903863  25.5439682 -13.0848494  33.3762283 -29.3895588
 -13.1221342  34.2350769 -28.9039459 -12.9852314  33.6577644 -30.3121071
   4.5866947 -38.5806847  16.6348362   5.3461919 -37.9742165  16.3214760
   3.9969473 -37.8766899  17.0487347  11.4132938  15.8767319  26.4889584
  12.4122419  15.6657791  26.2763786  11.3276768  16.6324654  25.9332294
  14.1506033  15.2041845 -29.8468933  14.4987516  16.1183777 -29.9438400
  13.7809649  15.3017979 -28.9234619 -11.8692017  16.4253712  32.1305580
 -10.9759512  16.1375961  32.2789688 -11.8022947  17.3337593  31.7911167
 -12.7467880 -13.0033293  27.8692799 -12.5669594 -13.3276272  26.9745770
 -13.1451511 -13.8014069  28.2755108  30.2639637 -12.4119310  17.5022507
  31.0767307 -12.5659189  16.9866123  30.5982552 -12.3244524  18.4357033
 -22.6727791  -1.4914547 -16.6358280 -22.7087212  -2.4346957 -16.7157822
 -23.5514526  -1.2099109 -16.8095169  13.4947424 -13.6248665  37.2467842
  13.5505514 -12.6389790  37.3862267  13.6127586 -13.9851313  38.1272926
 -20.0485039  11.8237257 -41.7389412 -19.6037998  11.4429426 -40.9357643
 -19.4757099  11.5041189 -42.4415398 -22.2895489  36.1607780 -33.8496475
 -22.1321621  36.6585045 -32.9977455 -21.9070721  35.2838860 -33.5424652
   4.3080673   4.1861062 -11.9362974   3.5365424   4.1039290 -12.5237627
   4.3480916   3.2937577 -11.5013933 -16.3498726 -34.4540367  -3.0626633
 -17.0049534 -34.9890633  -2.6208942 -15.5748196 -34.6265411  -2.4365618
 -15.8855219 -12.2039366  28.6384869 -16.5722294 -12.8314781  28.3980389
 -15.7980499 -12.4216261  29.5648613  25.1453476 -29.2797222  32.7345810
  24.7369576 -28.9390182  31.9407425  25.1078911 -28.6486797  33.3862724
  -8.3075886 -31.2664070 -12.4667912  -8.6067181 -31.5084248 -13.3304071
  -9.1117754 -31.2283878 -11.9351616 -17.1551361   5.0100613 -14.7207108
 -17.6313610   5.1507382 -13.9131584 -16.7637577   4.1356568 -14.6726494
 -40.1157150  -8.8871288  20.8616619 -39.7446938  -9.5282602  21.5040512
 -39.6189957  -9.2349358  20.0394955  12.1618071 -12.0339155 -23.4030628
  12.3440437 -12.6883211 -24.1450920  13.0983829 -11.7715845 -23.1524563
  21.0705166 -20.8069572 -32.9809799  21.5688095 -21.1511269 -33.7543602
  20.1623554 -20.7497272 -33.3660622  29.3222084 -21.6473675  27.1791534
  28.7588558 -22.1490116  26.5338612  28.7104244 -20.9931698  27.5223389
  -9.2375031  11.0212507  14.0864887  -8.5863533  11.7960854  14.0451345
  -8.9624844  10.5239401  13.2356873  24.4346352 -22.4011784   9.7903099
  24.3872337 -23.3720627   9.9880075  24.8631420 -22.4019890   8.9226303
  33.1489410  -8.9461670   1.4162650  32.6179733  -9.2659931   2.1917989
  33.8287315  -8.4228535   2.0081918   9.3757753 -17.2244453 -42.9294434
   8.6722670 -17.6785259 -43.4093208   9.9444885 -16.9351387 -43.7142639
  27.7298794 -33.0521469 -26.8726425  27.4226093 -33.6247177 -26.1153564
  28.6367016 -32.9115410 -26.6098404  -0.9311643 -42.4977875  -0.6317933
  -1.1591648 -43.1671677   0.0238905  -0.4892300 -43.1163712  -1.2924460
 -10.3256626   0.2072172 -35.9424629  -9.9862776   1.0707227 -35.9940453
 -11.1942110   0.2331159 -36.3959808  17.9450798  25.8569641  27.1762848
  17.9529018  26.8216343  27.1093025  17.0492859  25.6836147  26.7297897
  29.1329079   0.1552916   2.3719676  29.8578377  -0.4562324   2.5945127
  29.0788403   0.0793702   1.4172020   1.9835685  -9.2036524  -9.5190992
   1.0682276  -9.3390837  -9.9151230   2.5295718  -9.7649069 -10.0929241
 -35.7137108 -19.2944317  24.3935947 -35.4545059 -20.1851864  24.7323685
 -36.6734734 -19.4565258  24.3639221  27.7340202  21.6849556 -14.9276829
  27.2658482  22.5127068 -15.1234818  28.6594620  22.0004406 -14.9195604
  17.2425213  30.8990059  28.8144379  17.7740688  30.3199406  29.3384876
  17.3471184  31.7943287  29.2397919 -38.4404526   3.4475999   1.1764753
 -39.2011032   4.0796452   1.1052512 -38.4330101   3.0585327   0.2757125
 -30.4338913  12.8506908  -6.7051654 -31.1205177  13.5476618  -6.5918565
 -30.6622047  12.6341772  -7.6735716 -26.2966881 -17.9954567 -20.3272533
 -26.7499199 -18.2582550 -21.1263237 -25.5642223 -18.6062641 -20.2448807
  29.7881851  35.0601006   6.3143239  30.4659042  35.7046738   6.0010891
  29.4629307  34.7561073   5.4460478  31.9355946 -14.1259069 -25.4225426
  32.7567062 -14.5420132 -25.1186390  32.2914314 -13.3164635 -25.8500462
  22.5187931  24.9570770 -28.3611012  23.0372581  24.1439114 -28.3983116
  22.8449478  25.3429890 -27.4680328  -5.9480114 -14.2294607 -38.5600357
  -5.4361529 -14.7694101 -37.9525833  -6.8486600 -14.1972160 -38.1016121
  -8.2590284   1.2322520 -26.5270882  -7.3153329   1.0217079 -26.5225849
  -8.6114740   0.6780322 -27.2261047 -24.9676609  10.6110067   5.7851138
 -25.8143120  10.7998571   5.3279471 -24.4547653  10.1552420   5.0563192
 -31.6252823 -19.5896130   0.2498494 -31.3005009 -20.2912064   0.8145118
 -31.2936935 -19.9106331  -0.6408845 -11.5545483  11.6955576   0.9494789
 -11.2293339  12.0090170   0.0789128 -11.5650492  12.5903111   1.4004509
   8.1414804 -19.5330086  -8.4497957   8.8630047 -20.1638031  -8.0875664
   8.3535089 -18.7541580  -7.9157228  18.3090820 -27.0390148 -39.1841469
  18.1373882 -28.0267830 -39.0893021  19.0547161 -27.0607510 -39.7952805
 -24.9800930 -17.3641434  22.2141991 -24.2493229 -17.9931908  22.1051540
 -25.6961575 -18.0779457  22.2035904  28.0552006 -29.4999256   4.1348977
  28.1143913 -29.4307041   3.1256671  27.6892776 -30.4178371   4.1849103
  40.4535904   1.9677743   3.0538399  39.7265358   2.5287917   3.5067301
  40.1711617   1.1006167   3.4474645 -18.4585400  27.3754158  11.5465651
 -19.3344879  27.2943478  11.9641666 -18.0766010  26.4901314  11.7914896
  32.4811172  -1.3347301 -32.6697693  33.0378761  -1.2007465 -31.8830509
  32.5333290  -2.2896557 -32.8839035   5.9754291   2.0731881 -18.5794163
   6.5530243   2.7336714 -19.0058136   6.5100627   1.9688448 -17.7733116
  32.8388138  30.5632515  -3.5375645  32.0091858  30.8755493  -3.1446307
  33.4594765  30.8649254  -2.7825131   3.2900186  -4.0065289  19.2753696
   3.5701370  -3.6174448  20.2045155   4.0968633  -4.5412598  19.1459618
   2.7270818 -13.6493511  37.6235123   2.8968773 -13.5626841  38.5630989
   3.0497828 -14.5923462  37.4714622  38.4936104  16.3554230  23.8367348
  39.3067474  16.3568783  23.2992058  38.3837738  17.3241291  23.9976997
   7.5958548  -3.3696756  38.7605171   7.3157420  -3.0297015  37.8938408
   7.1203289  -2.7520108  39.3577347 -22.8854771  10.7976656  13.9351521
 -22.2163715  10.1716967  13.5737162 -23.3249702  10.2833433  14.6216269
 -17.7441998  16.0304852 -36.4289055 -16.9577312  16.4492817 -36.7504044
 -18.1095181  16.4982624 -35.7776070   6.4071255  43.0401955 -16.4907112
   6.7702131  42.7855568 -15.5671902   5.8459067  42.3088646 -16.6554966
 -36.1356964   4.9097552   1.7643433 -36.2856712   5.1525278   2.7003744
 -36.9259605   4.2846527   1.5815883   1.2856958  23.2932091  -4.4328275
   1.7392753  23.5824261  -5.2570004   1.9284034  23.5973778  -3.8047605
  17.7018185 -36.6018219  -8.1982088  16.7641754 -36.7179642  -8.3871422
  17.8150692 -35.6627197  -8.4128799  37.6798859 -20.1784897 -25.3076038
  37.1383591 -20.8878479 -25.6507549  38.4343987 -20.6583748 -24.8783531
 -12.9111242  28.2574272 -34.9596558 -12.9280968  29.1967258 -34.6363716
 -11.9587526  28.0629368 -34.9614143   8.4610243  -6.7082119  27.7218132
   9.2079592  -6.6069756  27.1007328   8.8103390  -7.3478117  28.3549995
  -9.1701832  37.4754181   8.7489042  -8.2571316  37.3491096   8.4637785
  -9.1819353  37.1232452   9.6658440 -25.8087025   6.2625098  10.0594225
 -26.3446503   5.8794928  10.7491484 -26.4261646   6.2275596   9.2825823
 -33.9533195   8.7211895 -29.0584240 -34.2963829   7.7807164 -29.1618977
 -34.2782669   8.9473763 -28.1904602  23.3475361  26.1492729 -20.0435314
  23.2370720  26.8982258 -19.3739948  24.2311878  26.3176422 -20.3648739
  12.5276413  48.2800255   9.3159113  12.5291681  48.4861069  10.3116722
  11.5679865  48.1626167   9.1571760  -6.1144242  35.0362587  17.4756126
  -6.7445922  34.4200287  17.0031109  -6.1926484  34.6891556  18.3770237
 -14.6396580  -2.6390741  28.4037952 -14.8122892  -3.3473606  27.7129383
 -15.4545994  -2.1100953  28.2996216  43.7339859  30.0211525  -1.4040658
  43.2684364  29.7705441  -2.2477233  43.2844505  30.7947063  -1.1163983
 -31.8738804  33.0681686  23.3204994 -31.1477489  33.8068275  23.3340969
 -32.5959930  33.7869034  23.4145031  24.8361835 -11.2703972   3.9178102
  23.8815842 -10.9959660   3.9418540  25.1806679 -10.5594883   3.3221476
 -39.0521317 -14.5107555  -1.5024706 -39.3968887 -15.4338408  -1.6938901
 -39.8574905 -13.9720383  -1.7435795  16.9083176  40.6932373 -10.9780073
  16.8353863  41.0629730 -11.9212437  16.8463116  39.7893486 -11.1624374
  12.8558960  22.9090118  -5.0253110  12.4605389  22.8925972  -4.1122351
  12.0525389  22.5453129  -5.4986095   8.7981644 -36.3102684   9.0893850
   9.2588329 -36.8850479   8.4601479   8.4855223 -36.8863640   9.7701387
  -1.6569550  31.0320644 -24.9032288  -0.9754015  30.3132763 -24.7879620
  -1.4602925  31.2210579 -25.8528786 -15.8579893  26.2240353  22.9881363
 -16.0671940  25.2398586  22.9289494 -15.8142071  26.2956467  23.9739075
   4.7007322  46.7465324  12.6210842   3.9511607  46.6694565  13.1882324
   4.3385696  46.7359886  11.7153358  -8.3871851 -42.6025467 -14.8508110
  -7.9853845 -41.7459641 -15.0727930  -7.8200531 -42.8359070 -14.0261393
 -29.9153252 -28.7998314   9.7575312 -30.5343418 -28.0142231   9.8139925
 -30.4766998 -29.5490341   9.5039692 -28.8327389   6.1638522  12.1422272
 -28.4171906   6.4025311  13.0040617 -29.7419071   6.4748178  12.4152231
  -5.3286519 -20.4029579 -25.2055893  -5.8620262 -21.2369881 -25.1554775
  -4.4075584 -20.7778645 -25.3113308  -4.6810298  10.3909445  15.5349426
  -3.6597703  10.4133177  15.5892000  -4.7698789   9.7065687  14.8422232
  25.5090733 -22.4864407   0.1808414  24.8898163 -23.1640720   0.5084713
  26.2790718 -22.5704918   0.7778854  -9.2256289 -15.8126965 -33.9648705
 -10.1569204 -16.0095634 -33.6733704  -9.1014204 -16.5329781 -34.6455650
  32.7269897  25.5635986 -20.2772045  32.7228851  25.1226807 -19.3332729
  33.0194931  26.4600525 -19.9885807  20.7777672  24.4934177  12.4483185
  20.6732483  23.6454792  12.0165701  21.5872498  24.2627735  13.0330887
   6.6290069  27.6464767  -3.1933470   6.7989879  28.0410233  -2.2901311
   6.3086400  28.4219704  -3.6240733  34.3732262  11.1957350  10.8942251
  35.0604782  11.8569880  10.7607269  34.8989296  10.3738718  10.7639456
 -31.4676952  26.8842793  24.9512005 -31.0908203  27.5498238  25.5991001
 -31.1415310  27.2943497  24.1064758 -21.2860374  23.0629082   3.4827185
 -21.8283100  23.8854198   3.4320858 -20.7568283  23.1592236   2.6627622
   1.7297822  10.4752026  -0.9288360   1.4286703  10.4978228  -1.8294899
   1.3695071   9.6730042  -0.5585613  -5.3657861  -5.6595716 -13.1681595
  -5.9882965  -6.0659318 -13.7990026  -5.5650501  -4.7302680 -13.2564125
  40.6338120  -2.8093519   7.3092737  40.8324699  -3.5651917   6.6982608
  39.7326126  -3.0816772   7.6282091 -36.9650536 -30.4412155  -6.3994188
 -37.7180977 -31.0629272  -6.4768367 -36.9085770 -30.4017372  -5.3876057
   0.7250726  11.0886946  16.5227737   0.8529214  12.0596695  16.4687996
   1.0315515  10.9113703  17.4318485 -18.2910118  18.6697540 -31.7236118
 -18.1866856  18.1762447 -30.8817997 -19.1713829  18.4020176 -31.9924107
   6.4537802  -9.1758099 -14.4086008   5.5258145  -8.9578876 -14.5014315
   6.7518501  -9.4236708 -15.2788172 -19.5085354 -16.5686264  19.4108067
 -19.0524311 -15.8252096  19.8314209 -18.8976917 -17.3248787  19.6433907
  39.8691444 -11.2950764   5.6325793  38.9324188 -11.3624973   5.3211355
  39.7255211 -11.3355932   6.5846567 -43.4549217 -19.5589275 -19.0894432
 -42.9479103 -18.7371254 -19.0474243 -43.0031967 -19.9560871 -19.8816853
  35.8571091   7.6913676  18.8781509  35.3900070   7.9462981  19.6524982
  35.0888824   7.3753300  18.3170967  19.6011677 -29.5114403  13.9520893
  18.7450562 -29.0093632  13.8797388  19.2881432 -30.2831211  14.4508648
  39.7368355  32.0775604   0.5827529  40.1110306  32.9636612   0.4698295
  39.1783257  32.1802177   1.3685956  -8.9114618 -11.9091158  18.2116680
  -7.9667721 -11.9922342  18.5349541  -9.1125031 -12.8373051  17.9933395
   1.9590845 -10.4573812  28.0789394   2.3445704 -11.3636284  28.0155582
   2.5660100  -9.9744959  27.4336300  -5.0890083 -17.0618973 -32.7009773
  -5.7834520 -16.8896313 -32.0091515  -5.6522517 -17.6118488 -33.2960396
 -10.5990009 -12.0064220  15.6586533 -10.2442522 -12.9144487  15.8161306
 -11.0454044 -11.8081732  16.4988575 -20.7733040 -21.6899986  -6.6201305
 -20.7014313 -21.6458569  -5.6470728 -20.2533875 -20.9307861  -6.9197617
  -3.0100338  19.2824917 -25.3922806  -3.7095652  19.8523159 -24.9889412
  -2.6457784  19.8157501 -26.0993462   5.3827496 -26.2316132 -18.7755699
   4.7390404 -25.9080315 -18.0785217   5.1998658 -27.1793785 -18.6384106
 -29.6617680   6.6697741  32.1942520 -28.9721527   6.4081440  32.7752533
 -29.2324886   7.0711508  31.4260368 -42.0529976  -6.5883079  16.9458961
 -42.5393372  -7.2568793  16.3769970 -41.8653488  -7.1370387  17.7019596
  31.8968964  15.2191906   4.1029243  32.8007050  14.9231005   3.9354548
  31.4965191  15.1126661   3.1671650 -13.3395090  20.6392651   6.6743760
 -14.2991352  20.7374821   6.6415524 -13.2203455  20.8802509   7.6487336
  14.2202253  34.2228241 -16.5782681  13.9171505  33.4770126 -16.1399517
  13.7585583  34.1579132 -17.4642391 -29.5942421  12.9061356   5.3238282
 -29.5416222  12.3499308   6.1301808 -29.1077938  13.7364998   5.5988617
  10.5168076  19.9398727 -20.2516975   9.6488743  19.5137959 -20.5464897
  11.0164995  19.7837582 -21.1007996 -15.0771132  13.4933109  39.7238197
 -15.6984015  13.9830103  39.1197739 -15.6947603  12.7887411  39.9838600
 -16.5061016  20.2149105  16.8132057 -17.2751274  20.7445755  16.9719925
 -16.4890022  19.5151958  17.4961720  33.5513763 -29.2411880 -11.4318399
  33.2171707 -28.3645725 -11.1736631  34.2283096 -28.9409771 -12.0900373
 -42.2083244 -26.4657631   2.6221440 -41.2905617 -26.2529926   3.0231490
 -42.5668716 -25.5595131   2.8163500 -18.3673992  -8.0098600   1.6336001
 -18.1966419  -7.2513580   2.2293267 -18.7594070  -8.6424189   2.2832572
 -25.7524300   6.5468106  41.5706367 -24.9956741   6.3778095  40.9829102
 -25.3903255   7.2827768  42.1017685   1.3301983 -33.8952217  -5.8294163
   0.7148384 -33.7062836  -6.6052074   1.2974529 -34.8945389  -5.8621025
 -16.0291996  20.7470188   5.6226830 -16.2121582  19.7741928   5.6136107
 -16.7096615  21.0248814   6.2781043   8.2069292 -26.2869148 -41.9350014
   7.5479550 -26.6903534 -41.3503265   8.7513123 -25.8120861 -41.2791023
 -13.3983603  20.5962677   9.3106165 -12.9465189  19.7316532   9.1081781
 -12.8063517  20.8379612  10.0996084 -21.3114719 -13.2227173   4.6907821
 -21.9396191 -13.1686764   5.4429235 -20.4463692 -13.3346205   5.0601001
   1.0775485   8.3375750  31.4636974   1.5942267   9.0420513  31.0291538
   1.8325851   7.7591567  31.6990070  -0.4815123  -0.8797559  37.1927795
  -1.2205088  -0.5230134  37.7545242  -0.4430094  -1.8005091  37.5667267
 -39.2477150 -15.1610136  20.5442429 -40.1260757 -15.4711189  20.2860565
 -38.9271126 -16.0510654  20.9459095   4.8715315  28.9309673   2.6644483
   3.9636569  28.9148407   2.4982862   5.0100336  28.3029404   3.4063182
  42.8916168 -11.0767756 -20.2554855  41.9877319 -10.6847935 -20.1219902
  42.5512543 -11.9552975 -20.6060448  -3.5744348 -40.7435684  -9.6300592
  -2.8368216 -41.1942863  -9.1682158  -3.1028421 -40.6155701 -10.5026903
   4.7474623   1.9254510 -22.3600903   5.5233459   1.3551811 -22.2860432
   5.1989379   2.6834831 -22.7636566  -2.8971100  35.1771088  -2.7194436
  -3.6433210  35.7359047  -2.3122270  -3.2325702  34.2941551  -2.4103341
  -7.4970684  27.9544411   6.2727370  -8.0884905  27.8260479   5.5292087
  -7.7616272  28.8404140   6.6346378  35.8282661 -13.0027313 -29.3302670
  35.1711426 -13.6255493 -29.7365227  35.4304199 -12.1841583 -29.7950020
  27.8612766 -11.2211142 -37.8166504  27.9906788 -12.0002718 -38.3511581
  28.1935177 -11.5838852 -36.9559097  31.8641033  35.4788666 -17.6358509
  31.5649910  35.3571892 -16.7365627  32.6675949  36.0627403 -17.4530544
  -0.5648209   7.5171227  47.9663620   0.1136688   6.7635636  47.8932953
  -0.2053030   8.0463495  47.1968384  27.6113586  -5.0904012  -3.9166238
  27.6206207  -5.3329611  -2.9613025  26.7312717  -5.4536119  -4.1760998
  -4.5629687  27.2670231  26.7441273  -4.6857615  28.1243229  27.1626835
  -3.6578021  27.0030766  27.0622501 -10.7741022 -27.0803833  29.9279575
 -11.2389898 -27.6558933  30.5898609 -11.0226278 -26.1908779  30.4326744
  -6.0199027   6.9856863  46.9993401  -5.9529767   7.3423724  46.1541443
  -6.2673802   7.7483912  47.5498772 -32.3507729  28.3402271 -25.1311226
 -32.6293259  29.2634926 -25.1227741 -31.4558201  28.4123707 -24.7091637
 -34.9697380  -8.8623400  27.4032154 -34.0594406  -8.7644291  27.8390903
 -35.5267639  -8.4527140  28.0513783 -17.1092911 -15.3460360  -5.9966679
 -17.1256790 -16.2212963  -6.4251804 -17.8740654 -15.5470829  -5.3769803
 -10.3420601 -48.0196609  -7.4518290 -11.2058592 -47.6052322  -7.2317281
  -9.8005724 -47.2458649  -7.6564331  -3.5534790  13.9226665   9.6789360
  -3.6642184  14.8322134  10.0362272  -3.0539396  13.6118040  10.4532528
 -29.2972679 -30.7282352  -7.4714017 -28.3477402 -30.6023502  -7.1802607
 -29.4779701 -31.6185837  -7.1255350 -11.9647903  22.6260643 -13.0189180
 -12.8080397  22.9234676 -12.6918135 -11.5613766  22.2489033 -12.1614761
 -26.5561523   6.0618744  -7.3474631 -26.2370186   6.8854299  -6.8447661
 -26.1080132   6.3256097  -8.1869745 -25.1134319   4.7603602  32.9847031
 -24.8811951   4.0529861  33.5981827 -24.4349518   4.6293788  32.2549019
  25.0969887  29.5787697  -8.1109924  25.3354626  29.7718811  -7.2092514
  24.5175076  30.3297863  -8.3204412  -3.5625477 -14.6060104 -30.6434307
  -4.2142663 -14.7089224 -29.9009724  -3.5059278 -13.6188545 -30.6845207
  39.8983955 -29.5655842  -3.8256972  39.2172432 -29.9412346  -3.2733691
  40.4170494 -30.3273411  -4.0774908   2.1536949  35.5687637  19.9237690
   1.6724627  36.2716751  19.4929619   1.9575257  34.8304100  19.2515697
  18.1241741  20.7859764   9.4976807  18.4020710  20.1530342   8.7806578
  17.5975876  20.2086067  10.0356941  38.9660950  -8.9353027  29.9064770
  39.0770912  -7.9408245  29.9541035  39.6764030  -9.0935602  29.1825218
   7.5079060 -18.0617790   7.2855411   8.2657280 -18.7445259   7.2105250
   7.9066916 -17.5061417   7.9984655 -20.0967197  18.1489410  14.2879496
 -20.1571102  17.3890152  13.6839790 -20.4654713  18.8726215  13.7679729
   2.5701804  -0.0785876 -34.4853935   2.8476343  -0.9869485 -34.2457123
   1.9969198   0.1058556 -33.7432785  10.7930536 -23.6754265 -21.8034916
  10.3427238 -24.5597210 -21.8687534  11.6373663 -23.9050980 -21.3486919
 -28.8565960 -31.1423721   2.2202513 -28.8164597 -30.6142902   3.0088248
 -28.2236328 -31.8695679   2.3668549  17.8670845  -8.4298897  16.6385746
  18.5326176  -9.0210752  16.9886227  17.0241127  -8.7832422  16.9759827
  18.4850845  25.2597446  20.5300503  18.8739109  24.3201084  20.6021996
  18.1191711  25.2413616  19.6476650 -35.1448822  18.0214252 -29.6951866
 -34.7504578  17.2419758 -29.2942657 -35.9439545  17.5484066 -30.1224098
 -27.1078072  25.4652977 -21.0448799 -27.1295452  26.4054298 -21.2276134
 -26.6390133  25.4692879 -20.1938248   0.4145541 -30.3760433   7.0586290
   1.1445458 -30.6571980   6.5115533   0.8107547 -30.2351875   7.9111547
 -18.3448601  18.9161167 -40.6183357 -18.8456440  19.4189491 -39.9637108
 -18.8310623  18.0375061 -40.6336403   0.6341925  27.5707874  12.8776121
   1.6317487  27.7110176  12.8541756   0.3942623  27.7805347  13.8057890
  13.2481937   8.8472137 -28.4352627  12.3676004   9.1223392 -28.1699963
  13.3553762   9.2796040 -29.2918148  -6.7045012 -18.5947762  -9.6023483
  -6.8080802 -19.5084362  -9.2417126  -6.2844810 -18.2065277  -8.7831287
  19.3642941  11.7125597  15.1185989  18.7644043  10.9186335  15.0328779
  20.0093327  11.3572168  15.7396069 -21.1511307  10.7430401  33.6356468
 -21.7012615  11.5795374  33.3857994 -21.6310387  10.1138554  33.0434074
 -19.9397984 -45.8312798  16.8362293 -19.0540600 -45.4420662  16.8014774
 -19.9747887 -46.2312584  17.7136993 -12.5287542  14.5529299 -16.8285599
 -12.9429207  13.9233704 -16.2298031 -11.5967913  14.4816828 -16.5389118
 -16.6490955  19.1516743 -18.4983864 -17.5613785  19.4670353 -18.7675858
 -16.7544975  19.1926441 -17.5278244  -5.9299955  11.1628542 -11.6518812
  -5.0431218  11.1749191 -11.1977158  -6.4125056  10.5624733 -10.9879284
  27.2076263  21.0797920 -29.6944199  27.5231190  20.1199055 -29.6501770
  26.4076004  20.9624424 -30.2493839   2.7700546  -7.1825938 -39.3529243
   2.5704763  -7.8421397 -40.0335960   3.5153894  -7.5436282 -38.7970848
   7.0490890 -34.0538139 -34.3087273   6.7025652 -34.6133156 -33.6280556
   6.6004124 -33.1974983 -34.1902847  26.8395748  16.4922371  16.3111324
  26.9218845  17.2902489  15.7543106  27.1541748  16.9032097  17.1379776
 -19.3903465  23.9666233   5.7650299 -20.0449772  23.8413715   5.0454030
 -18.8667812  24.6875591   5.4275756 -32.4231110  20.3023643  15.4404516
 -33.0047874  21.0548306  15.7546463 -31.8606224  20.8681240  14.8290348
 -35.3316231  30.8543262   8.4579792 -34.4806976  30.4544010   8.1020298
 -35.9376793  30.7482891   7.7426157  40.4444695  16.6150799  -2.2507505
  40.2544174  16.1821861  -1.4465039  39.5960426  17.0502605  -2.4633238
  36.0427246  -5.2543354  29.8732758  36.3709908  -4.5940685  30.4583778
  36.3096352  -6.0830083  30.3752308 -10.0468397  32.9400368 -12.7037954
  -9.0573540  32.9289093 -13.0041409  -9.9858904  32.6499405 -11.7980957
  34.4522362   8.8242779  21.0607014  35.0134048   8.7645226  21.8378201
  33.6044197   8.4340429  21.3223038  30.7599735  -7.7630482 -33.2259560
  30.8098679  -6.8170342 -33.4656219  30.8665504  -7.7608628 -32.2771416
  18.4405632   1.3796510  41.8060837  18.8004513   1.9263591  42.5150795
  18.6745338   0.4746416  42.1278534  25.7581940  -1.6737419 -13.0265121
  26.4689121  -1.6512717 -12.3438244  25.2656994  -2.4754908 -12.7581205
 -20.4774551 -41.2270126 -14.9889717 -20.2515507 -40.4414520 -14.4512367
 -20.2179050 -41.9381828 -14.3595448  -9.6393356 -42.2123642  19.0898228
  -8.9002266 -42.5264168  19.6986618  -9.3711882 -41.2369576  18.9954815
   7.8637133 -13.9187412  10.4714317   7.7303343 -13.3814058  11.3124971
   7.0440335 -13.6678562   9.9925451  41.7235947  -8.9250069  -4.8201876
  42.0588531  -8.0082083  -5.0210791  40.8283997  -8.6831808  -4.4836693
  17.6210785  34.6339951  10.1160431  17.7398853  34.3141861   9.1625834
  16.6430607  34.5594940  10.1613007  19.1616611 -37.7744141 -32.4677238
  18.9560127 -36.9591103 -31.9891262  19.7424889 -37.4952583 -33.1303825
  17.6852970 -13.7786608  39.6317406  17.4446030 -12.8489685  39.4143524
  17.5614796 -14.2007933  38.7067604  10.4891720  10.9564781  -9.1169024
  10.5415726  11.0913906  -8.1629410   9.8765278  11.7665606  -9.3347864
  34.5083771  22.4706516  16.6177063  34.7822800  23.3752937  16.8967037
  34.7892914  22.5289345  15.6887960 -10.5335732  -3.1372921 -26.0904369
 -11.2125788  -3.3924849 -26.6886406 -10.8266258  -2.3768497 -25.6272030
 -11.2064285 -11.1087799  -6.1673064 -11.6024618 -11.2380705  -7.0629792
 -10.4739895 -10.5096750  -6.3823977  29.7533836 -10.2736340 -14.5402641
  30.5285244 -10.2563200 -13.9131670  29.0141640 -10.3875751 -13.9607458
   5.7645845 -13.1789465 -47.1462364   6.6778145 -13.6321516 -47.0945358
   5.9376326 -12.5946131 -47.9246712 -30.3960247  13.1898184  14.8133411
 -29.7066040  13.8594160  15.0707369 -30.3738689  13.2935886  13.8252316
  32.2167282 -16.9906273  -1.6912520  31.4092541 -16.6662483  -2.0936530
  32.2437172 -17.8873940  -2.0228553   5.0187006 -40.1220779 -28.3261433
   4.3511896 -40.6833763 -28.6371727   5.8886747 -40.5672646 -28.4837399
  -8.0239630   6.3056774   9.6906729  -8.3849478   5.3874578   9.6117411
  -8.7381592   6.7661290   9.1803207  -6.1542459 -44.6225395  19.3143101
  -5.8222923 -44.5275116  20.2271366  -6.7973661 -43.8861465  19.3468742
 -31.1549530  14.5721035  25.9476357 -31.8874550  15.0775585  26.3225441
 -30.4516411  14.9342632  26.6352673  16.2199879  32.2361794 -23.3536587
  16.7632751  32.5441437 -22.5794563  16.2359161  33.0399513 -23.9146614
 -41.2399559 -13.0736561   8.5165310 -40.6579514 -13.0817661   7.7164450
 -40.6310120 -12.8979607   9.2525301  39.7812691  11.4180136  -5.0588193
  39.5097084  12.1428375  -4.5239205  39.0375366  11.2900391  -5.6991615
  -1.0797408  21.9839172  21.1068573  -0.4785181  21.2108593  21.3579235
  -1.8985833  21.6476822  21.5661335  -8.3226671  24.6066742  10.3081446
  -8.2512531  25.0449219   9.4105816  -7.7276902  25.2360687  10.7953711
  -6.8303747  19.8948288 -18.3431282  -6.3457756  20.6205158 -18.0322342
  -6.7325273  20.0450325 -19.3355370  -7.9318376  41.7243881  30.8615284
  -7.5156865  41.9119377  29.9767914  -7.1685700  41.7504539  31.4369164
  31.1840096 -32.0119553   4.5521235  30.5685329 -31.8245525   3.8263040
  31.6923676 -31.1564560   4.5577149   1.7453518  13.5768013 -10.2887011
   1.6916773  13.0595732 -11.1699257   2.3259170  14.2729387 -10.6136971
  -4.8532052  29.6746273 -10.4315691  -5.6720762  29.5743122 -10.9863071
  -4.2579279  29.0017891 -10.8431740   6.1173820 -32.3346405  -9.4726725
   5.2602668 -32.7732506  -9.5502386   5.8857298 -31.6580925  -8.8157406
  17.6847591 -38.4177856 -35.1829758  18.5863552 -38.0726433 -35.3684311
  17.7888412 -38.7910881 -34.2883911  14.4917374 -38.4160309 -34.5052223
  15.4317093 -38.4770164 -34.6982346  14.5074139 -38.7325325 -33.5494804
 -21.6078148  21.2340355 -14.7212563 -20.7398891  21.4110031 -14.4128809
 -21.4472408  20.4306278 -15.2760096   3.6197865 -21.4525013  25.3156090
   2.7329407 -21.5559330  24.8064957   3.8469269 -20.5748615  24.9000034
   9.1116114 -13.4872532  14.8239813   8.8561754 -13.0670862  13.9714098
   8.7487917 -14.3876104  14.7009134 -21.3873596 -32.2279472 -26.1536160
 -21.0436115 -31.3019428 -26.1394825 -22.2870464 -32.0821190 -25.8449936
  34.1021996   4.0592389 -10.5418749  33.2521591   4.5612297 -10.5930243
  33.7135773   3.1566617 -10.4246025  -4.1813054 -15.1425161 -24.8621769
  -4.5826130 -16.0417233 -24.5703449  -4.8182821 -14.9725780 -25.5699406
   6.1780849  26.9648685   8.0802383   5.9269762  27.7466698   7.5731020
   7.0276170  27.2651062   8.4489126  21.9190197 -13.7908411  14.5668888
  21.5788803 -14.7152891  14.6371145  22.0022755 -13.5859556  15.5661144
  -1.5910766  -2.2440519  42.4586792  -2.3802204  -1.9660392  41.9272461
  -1.5576972  -1.5022702  43.0942802 -19.8898754  33.4007111  -7.6937790
 -20.3694401  34.0946541  -8.1020565 -19.9543076  33.4934006  -6.7105641
 -31.4578114 -21.1847248  -4.8168712 -32.0961647 -21.5782356  -5.3752241
 -31.0648212 -20.4791088  -5.4562311  13.4750824 -29.7534103 -10.5178308
  14.1770458 -29.3797398  -9.9278927  14.0010262 -29.7628422 -11.3667297
   7.7224083  -6.4945889  24.0890064   8.0391245  -6.5033860  23.1567020
   8.2819014  -5.7204285  24.4225769   4.7949786 -32.3059425 -34.1200523
   4.7590671 -31.6218319 -34.8392220   4.0267749 -32.8472481 -34.4323235
 -31.0361404 -35.8875618  -2.3909428 -31.6860046 -36.4149666  -2.7875316
 -30.2295914 -36.3266754  -2.6924913  25.2496071  32.2830162 -16.1596222
  25.0840778  31.2783489 -16.2042503  24.3673687  32.6529160 -16.1772118
 -34.0181580  -2.9421546 -11.1015415 -33.6435356  -3.7958484 -10.8425903
 -33.2017899  -2.5680621 -11.5733433  21.8459606   8.4065895 -33.6412392
  21.0247421   8.7961302 -34.0176620  22.4399204   8.7863903 -34.3511620
 -28.7215271  34.6397591 -14.1123838 -27.8299351  34.5120621 -14.4119301
 -28.9021053  33.9726410 -13.4562798   7.9032254  29.8019276 -15.7497234
   8.6422482  29.2393036 -15.8682585   8.2854004  30.5780239 -15.2544060
 -32.1831551  21.1775093  32.3479347 -31.5708847  20.7908897  31.6631145
 -31.9149914  20.6115360  33.1556587  33.5004730  24.7835827   1.1271328
  34.3477669  25.0908566   1.3553022  32.9029961  25.3743286   1.5506533
   1.4467646  38.2357941   6.2969718   2.3297703  38.0420570   6.6874003
   1.4808298  39.2507591   6.2229433  -0.4210299 -13.8157644 -13.1526890
  -0.0911367 -12.9588804 -13.5336361  -1.1882964 -13.9532385 -13.7719688
  -2.3669519  23.5957832 -35.6505470  -2.6624842  22.7197304 -35.9484291
  -1.3940039  23.4410381 -35.7842865 -15.1077042  26.8605728 -33.4687996
 -14.6267414  26.1145363 -33.0040970 -14.3513966  27.3921909 -33.7569199
  13.1436491 -22.5651531   4.4863181  13.1847143 -22.3661366   5.4171014
  12.6243229 -23.3600636   4.4877238 -22.3277836 -10.3124781  -6.6500812
 -23.0443840  -9.7760401  -6.4066978 -22.1876469 -10.9658756  -5.9170065
  35.1173134  -3.9417727  13.9143419  34.9495277  -3.7877250  12.9801102
  35.9422493  -4.5022426  13.8842020   5.7902284   9.1425753  11.3791885
   6.0339303  10.0473957  11.2702894   5.4865594   9.0227947  10.4189272
  21.7581234  21.9244480  29.0409126  22.3022537  22.2006760  29.7554398
  20.8876781  22.2138519  29.3352280 -23.2176132  28.8650208   3.0743344
 -23.3976727  28.3842793   3.8805215 -23.9843559  29.4955177   3.0816393
  10.1135683 -26.7432709 -31.0015087  10.2228498 -27.7335968 -30.6754818
   9.1772289 -26.8289146 -31.2851391   1.1067017  -7.4653449   5.2224417
   0.3421808  -6.9495139   5.4460006   0.5953190  -8.2001905   4.7649584
  30.1691494   7.6322517  24.1659622  30.2077770   7.3706517  25.0703316
  30.7352180   8.3764658  24.1223240 -11.0712767  -1.4850359 -13.3089476
 -10.3772287  -2.1315613 -13.3135271 -10.7922106  -0.8528419 -12.6426697
  -2.3013890 -16.6305408   9.0363140  -2.8644993 -17.2535439   8.4601212
  -1.6460679 -16.4824581   8.3249931  -8.2117834   2.4641104 -19.8985691
  -8.9127235   2.8444483 -20.5191650  -8.5650043   2.7847123 -19.0177479
  38.5662460   4.1850233  15.3772411  38.4849930   3.2555301  15.0444384
  38.4430962   4.6178169  14.5263786  40.9806824  -2.3585854 -34.8316002
  40.8936996  -3.2338865 -35.3244057  40.0187263  -2.2159626 -34.6335716
 -32.3443146  18.0595016  17.3184967 -32.5211983  17.5071392  16.5525837
 -32.2595329  18.9429169  16.9347153  22.7366581  34.9108696   1.3080901
  22.8049164  35.3538094   2.2055085  22.9340267  33.9881287   1.5426235
 -29.0350704  29.8569698  11.3431978 -28.6224289  30.7431870  11.2854538
 -28.2549877  29.3220387  11.3050594  -4.2931190   9.4095783  22.1434765
  -4.8388529  10.1278400  22.4500008  -3.6108370   9.2990456  22.8421726
  22.2657070 -16.5306492 -32.8465576  21.9708080 -17.2238674 -32.2036514
  22.6448097 -17.0724545 -33.5797272   7.7512851   9.0868006   7.3812714
   7.3574367   9.9167690   7.1337953   7.0767984   8.4651651   6.9361773
  -8.2557278  30.6316299  -9.5360765  -7.9909134  31.4739532  -9.9640455
  -7.7980070  30.0306282 -10.1861296  18.1646786 -34.3716850 -37.2754478
  17.4684849 -35.0579338 -36.9198608  18.3000355 -34.8671341 -38.1163788
   9.1743793 -13.7270679  18.5421677   9.2287798 -12.8273382  18.1146336
   9.0520773 -13.5791845  19.4503460 -17.2187710   0.1675560   2.7196770
 -18.0548439  -0.3469842   2.9037583 -17.0422459   0.4061660   3.6226354
   0.4380904  -1.1933265 -10.6784735  -0.2048415  -1.8524696 -10.3308210
   0.8016140  -1.6527895 -11.4440422  -1.8813795   9.5945148  -3.7579033
  -2.5188050  10.1515236  -3.2939870  -2.0649312   9.8310480  -4.6747360
  40.0629692 -15.5006447 -21.8001308  40.7960739 -15.5489817 -22.4745445
  39.3235512 -15.8859959 -22.2869625 -38.2650337  21.3369904  17.6601982
 -38.6310921  20.5798550  18.1787148 -37.4061394  21.4295368  18.1507607
  15.9938068 -22.5718517 -38.6686859  15.1860771 -22.8722820 -39.1654396
  16.6120548 -23.3199806 -38.8469772  -2.4316804 -18.8922901  20.2996254
  -2.1037149 -19.7945004  20.3435593  -2.7640507 -18.8546581  19.3867455
   5.6398945  19.4385204  18.3487740   5.1677985  18.5944881  18.1734447
   5.7473392  19.7578430  17.4234886  26.8465595  -1.6151958 -38.3883781
  26.7609940  -2.1143711 -37.5782890  26.4094219  -2.2415483 -38.9581490
 -35.8096581 -23.9081001  22.3480759 -36.7329826 -24.1333637  22.1322594
 -35.6592102 -23.1812611  21.6866913   4.7474718  -3.7081430 -13.9217310
   4.8399582  -3.6870556 -14.9131126   3.9925451  -3.1248865 -13.7926521
 -22.5478764  28.1881809 -13.4459610 -23.2025909  28.2633286 -14.1275787
 -22.2315731  29.1551285 -13.5578098   0.6867971 -15.5590248   0.5055560
   0.4930865 -14.7754602  -0.0503778   1.6916579 -15.5187607   0.4849008
  28.7628365 -15.9226427 -34.9025955  28.5744877 -16.8700790 -35.0137749
  28.9553127 -15.6531906 -35.8299599  20.6648865 -25.4067917 -34.1412315
  19.7822552 -25.2723885 -33.7843895  20.7026196 -24.6499519 -34.7205009
   7.8423066  -9.4300718  18.6160812   8.1794825  -9.2849388  17.7446442
   7.5192814 -10.3652563  18.6128597  16.7850208 -23.8558712 -19.6285305
  16.6997623 -23.0738335 -20.2356567  16.1754532 -24.5070438 -20.1332932
   2.2165399   3.5226495 -13.6022501   1.2266046   3.5423419 -13.7001200
   2.4111271   2.6720169 -13.9950552  -1.8188953  23.8738689  36.7700310
  -1.4932845  24.1158257  37.6949997  -1.7868211  22.8976612  36.8605194
 -14.9788914  11.8062353  10.5866957 -14.4837513  12.0807943  11.4351473
 -14.3204947  12.2786531   9.9669619  42.1633034  -0.8198686 -29.9192638
  42.6401672  -0.9641275 -30.7629681  41.2539482  -0.6556643 -30.2002563
  -9.4612360  18.1229572  47.4984055  -9.6592960  18.9937897  47.8232231
 -10.1230307  17.6201935  48.0470467 -13.5797300  18.0576248 -43.8818207
 -13.6741009  18.4366093 -42.9678001 -13.6459332  17.0707474 -43.6200180
 -38.0974274  28.7152672  -6.4889450 -38.1139145  29.2840862  -5.6951694
 -38.0121346  27.8182602  -6.1116862 -41.7521858 -32.5210495  -4.6944976
 -42.4784012 -32.7709694  -5.3493710 -42.0891266 -31.7279892  -4.3806386
 -34.1910362   6.5270553   0.9852201 -34.7545204   5.7720904   1.3445860
 -33.6767311   6.0575900   0.3206160  21.0159302 -23.4167633  17.7284412
  20.6774273 -23.8858395  18.5502205  20.3609161 -23.7595711  17.0037632
  10.8608141  -0.2114592 -41.1587143  10.9328661  -1.2024332 -41.0184593
  10.6496077  -0.2465217 -42.1411705 -17.0460625  13.4423246  -5.8053236
 -17.7268200  12.8286409  -6.1016102 -16.3946457  12.8381214  -5.3693728
 -37.1708984  29.5484047 -19.9731293 -37.5244637  29.5421047 -20.8633595
 -37.9438553  29.3227730 -19.4719315  -3.2096725   6.9258766   9.8366776
  -3.3645866   6.5784760   8.9490194  -3.1685965   6.1627998  10.3886652
 -25.3206444  -6.8748798  -8.1051006 -25.4826756  -6.1693492  -7.5101099
 -25.6765041  -6.5700717  -8.9611502  39.0029373  23.2348576  19.2721729
  39.6667442  22.6428204  19.6675453  38.3606491  23.3169079  20.0270939
  28.3132286  11.3626804  29.9314270  28.8504333  11.7501860  30.6785908
  27.5808144  11.9817896  29.8397236  43.1446495  -8.1555071 -17.2799282
  43.7806396  -7.7712178 -17.9537201  42.3439255  -8.2524395 -17.7851849
  -4.6926346  12.8068094  -0.5733477  -4.0040889  13.4969540  -0.7676449
  -4.2624536  12.3698397   0.1826555 -16.6895237   5.8747120  12.0124216
 -17.2587585   6.4191122  12.6056833 -16.8688240   6.3172951  11.1613884
 -24.7026882  24.1213093   9.8696756 -25.2930889  24.4324436   9.1690350
 -25.0895596  23.2071304  10.0131102  -2.6036041  38.8599167 -21.8828335
  -3.1556323  39.5498924 -21.5368385  -1.9113265  39.3372498 -22.3139648
  32.5960617  19.0923843   9.7933178  32.0223007  18.6056499   9.1209383
  32.1779785  18.7775688  10.6130457  31.4545364   0.2505858 -10.3174953
  31.7687092   0.9874055  -9.7390442  32.2369614   0.0523155 -10.8599110
  10.8289671 -13.5206137  28.6348724  11.6654806 -13.6426868  29.0723152
  10.2702436 -13.3445768  29.3928070 -20.6832695  26.0552216  12.1828213
 -21.2210503  25.5889912  12.8332243 -20.3690891  25.2257862  11.6785507
  40.3411674  -4.6432834   0.9291341  39.8897095  -3.9630406   0.3482229
  40.9709167  -5.0263672   0.3245440  22.7776356 -34.5936356   8.1963921
  22.5681438 -34.1181870   9.0239534  22.6956482 -35.5144691   8.4804926
  -1.9829749 -40.5731926 -11.8924351  -1.8003011 -41.1363869 -12.6155100
  -2.5129850 -39.8389740 -12.2843494 -34.3991013 -32.0767860  16.6733303
 -34.8902588 -31.9208126  15.8354788 -33.5914764 -31.6327209  16.4255142
  -5.8544655  -2.7112913  38.3950958  -5.2130594  -3.3231909  38.6412659
  -5.4669986  -2.2015555  37.6104317  -0.7544643   7.4903378 -24.2408409
  -1.5261081   7.7170653 -23.7531319  -0.7579091   8.2018614 -24.9421158
 -36.8538170 -12.5222292  -1.6136339 -36.1730270 -12.9018974  -1.0129815
 -37.6061592 -13.1128197  -1.3890088 -30.9833832   4.6983414  40.7754402
 -30.6228065   5.1472239  39.9621696 -31.8996372   5.0842175  40.7430534
 -37.0939217  -3.8308234 -22.8519287 -36.5678329  -2.9822516 -22.8087273
 -37.8298492  -3.5069492 -23.4413071  17.3502350  27.6428280  -1.3799080
  16.6758385  28.1002483  -1.9557258  17.8964310  27.1859245  -2.0629063
 -34.5167618  20.1764526 -18.9592552 -35.2968330  19.7707386 -19.2975674
 -33.8482208  20.0045319 -19.6658134 -10.2097979 -30.1701126  27.3405304
 -10.5764809 -31.0196533  26.9477711 -10.1508245 -30.3330555  28.2644539
 -18.6816578 -13.1059389  28.3133755 -19.1969776 -13.2567940  29.1359901
 -18.2967701 -14.0162954  28.2141247  19.8159428  -2.6923304 -29.5273685
  20.0970421  -2.3600700 -30.3785591  19.0141907  -3.2086778 -29.7096882
  30.4388390 -22.0309277 -25.9250984  29.7401047 -21.6898727 -25.3971252
  31.2507133 -21.8011608 -25.4527435  13.7246113 -41.1754608 -12.3952827
  14.6198254 -41.5986214 -12.3274889  13.3261013 -41.6284790 -13.1300335
  25.5054417  -8.8316374  29.2750931  26.0205688  -9.2653255  28.6610279
  24.6683846  -9.2736349  29.2382183 -23.5262070  35.9664268 -29.3090153
 -22.9900742  35.1617050 -28.9923687 -24.4093761  35.5818825 -29.2893257
  19.8786297  10.3399935  20.7659206  20.7723083  10.7196636  20.8541050
  19.9122200   9.6954708  21.4887447 -21.6847820 -45.9049034 -18.5416660
 -22.1173840 -46.7717934 -18.2873211 -21.5864506 -45.5383415 -17.6223679
  30.9312057  40.0759773  10.9225130  29.9167366  40.2117157  10.8606720
  30.9483337  40.1038704  11.9481678 -14.4096241   0.2466573  39.6016922
 -13.9004936  -0.5278149  39.2905121 -14.9841328  -0.2268798  40.2260246
   2.4915609   0.9368954  -5.9482841   2.2922132   0.5286082  -6.8112478
   1.6950272   1.4869752  -5.8913255  28.5970840  -8.5833559  27.8328056
  28.7066860  -9.2056551  27.1771412  28.8473072  -7.7089987  27.2722130
   1.5294566 -18.2126389   9.1927452   1.3456590 -17.2357483   9.1908703
   0.6756113 -18.5345860   9.4988060 -36.3400230 -12.5230064   4.5197535
 -35.5695381 -13.1171885   4.5663424 -37.0510445 -13.1309061   4.8803539
 -15.8231678  -5.0817342  -5.0496745 -15.8071423  -4.2474647  -5.5222197
 -15.6556215  -4.7741456  -4.1165562 -26.2730408 -17.8856201  13.7335367
 -26.4521580 -17.2689915  12.9129686 -27.1076851 -18.3646336  13.5894852
  -5.2513938   3.3561864  -5.3019872  -5.8412704   3.9427221  -5.8420210
  -5.9101453   2.8655112  -4.8140521  -6.0066705   9.3323288  -7.3663473
  -5.7985630   8.7534800  -6.5961075  -5.1433911   9.8239946  -7.4753952
  33.9694633   9.3367367 -14.6175833  33.0525398   9.6345034 -14.3870411
  33.8700485   8.3458366 -14.6832018  33.9507828 -22.8905811  -0.0137066
  34.6310158 -23.3154602  -0.6015091  33.8925056 -23.5540237   0.6704977
 -12.1223631  15.4497404 -41.0064583 -11.2178288  15.0000868 -41.1129417
 -12.4926958  15.2291107 -41.8801537  -4.3146992  39.7073364  26.1306381
  -4.9794173  39.4558144  25.4370441  -3.7481470  38.8825569  26.0804653
   0.6494503  12.3179274  22.3754635   1.5764983  12.4625616  22.5564060
   0.2527320  13.1909647  22.3713398  14.5643959 -27.1758976   4.2855434
  14.3250227 -27.2724857   3.3545303  14.4199286 -28.1573772   4.4978085
  36.3438454   7.2809649  15.5054407  37.2149353   7.0278101  15.8234377
  36.1565857   8.1461811  15.8469982  36.3875122 -17.4922600  22.5176392
  37.3134117 -17.1135330  22.2825603  36.0162582 -17.4173717  21.6200829
  35.6938286  12.3366709   1.8641715  35.1381493  11.8460045   2.5578353
  36.5661507  12.1050949   2.2978668  43.8746414 -18.2947922  20.0182304
  44.6405144 -17.6631832  19.8491745  43.7373734 -18.0811939  20.9738731
  -4.3426523 -11.8478689  10.7481613  -4.9173503 -11.0420151  10.4365225
  -4.2412891 -11.5585518  11.6756582 -14.4479103 -37.4942970  16.6851101
 -14.1235523 -36.5628700  16.8430901 -13.8393402 -37.9825478  17.3270626
  -0.6514567  -8.7341337  16.1565151  -0.4706592  -7.7603040  16.0941410
  -0.4811161  -8.8221970  17.1554260   9.6258402  29.4312840 -32.5745316
  10.5564375  29.5532894 -32.2640457   9.7351618  28.5621395 -33.0542641
  34.3100433 -27.0073795  18.3697548  33.7412186 -26.6873455  19.1039848
  34.8016777 -27.7070522  18.8577919  -6.5379796 -35.8894348 -26.2502651
  -6.2163391 -35.2512512 -26.8954010  -7.4357095 -35.6198692 -26.1205654
 -12.0023260  -9.2962046   8.2261267 -12.1033535  -8.9288483   9.1294060
 -11.1127844  -9.6754856   8.2652369 -35.4600677  15.2692747   7.1675744
 -34.9126930  14.5165358   7.4085245 -35.2369080  15.3746872   6.1916666
  30.7449188 -20.8756828  34.7306557  31.4271069 -20.4889431  35.3418465
  31.0476494 -21.7758904  34.5544739 -35.7308998  26.6919575 -19.9132519
 -36.5639648  27.1940880 -19.9802399 -36.1256027  25.7334442 -19.9685764
 -43.0947227  -7.9177713   5.0060067 -42.2334213  -7.3418188   5.0663128
 -43.1242218  -8.0822487   5.9979606 -15.4752483 -13.6517372 -21.8277721
 -15.5069323 -14.5769215 -21.5403271 -15.4348173 -13.8492403 -22.8221245
   5.5623317 -12.5893812 -35.3736076   4.8622198 -12.3584099 -36.0372124
   5.3996449 -11.7878952 -34.8008041  29.5440845  18.4900818 -24.0671158
  29.6293106  17.8242989 -23.3324280  29.7782402  19.3320351 -23.5696163
 -28.8152084 -10.3251429   4.1907139 -29.2044926 -10.4759102   3.2708080
 -28.7895012  -9.3346825   4.1048017 -21.0066833  12.4520988 -20.1382751
 -20.5049610  12.1145067 -19.3457985 -20.4187565  13.1021347 -20.5302696
 -31.1351147   4.5769663 -41.6311569 -31.3410931   3.9299548 -42.3413124
 -31.2944565   3.9738266 -40.9035606  14.5926247  29.7683411   1.8266995
  13.8897476  29.9542542   1.1747079  14.2490025  28.9258041   2.1853726
  -6.3356590 -26.6838398  28.9174213  -6.1976805 -27.4708176  29.4703903
  -7.3485179 -26.6726265  29.0046825 -24.0306759 -44.2619362  -0.9531059
 -23.7586555 -44.7130318  -1.7657427 -23.2273502 -43.6833687  -0.9198256
  34.7955818   8.5881252  30.9574356  34.1746941   9.2391500  31.2998753
  34.4672890   8.5269775  30.0667439   5.0120964 -15.3300581 -27.9595318
   5.9627085 -15.2368107 -28.2144756   4.7080393 -14.4627504 -28.2862549
   7.1911325  26.2551365 -29.6090908   7.7953610  25.9416275 -30.3075695
   7.5205736  27.1798820 -29.5920734  40.3170357  21.0416088 -18.6138344
  40.2502556  20.1972771 -18.0556965  41.0693207  21.4673939 -18.1775818
  10.7599535  40.3425789  14.9089956  10.3310490  41.0360413  15.4791870
  11.5346136  40.8504791  14.6168242   0.1899720  -6.3865862  -0.4560096
   0.5487304  -7.0078244   0.2467450   0.2559715  -6.9112644  -1.2418112
 -30.0417881 -35.0957603 -14.9941196 -29.0910721 -34.9175682 -15.1048241
 -30.2896385 -35.4425201 -15.8569975   5.4514542  20.1928253   0.3173710
   5.0144868  20.9725857  -0.1544289   5.8295403  20.7033958   1.0446097
 -15.6225700  15.4967203  28.8217945 -16.2753181  15.1675463  29.4693069
 -15.7728624  16.4724941  28.9896145  12.9552135  -0.5717688 -30.4733734
  13.3602495   0.0616632 -29.8424492  12.9069214   0.0329217 -31.2581272
  16.5465240 -34.3067055   9.0897341  16.9351616 -33.4507027   8.7751646
  15.9002905 -34.5016289   8.4379892 -28.0289021  20.4254055  -9.0398684
 -28.4805374  19.8429203  -9.6873531 -27.1196957  20.1286507  -9.2643747
  25.9407845   4.4161959  23.6433239  25.9427757   5.3246460  23.3305378
  26.1581230   3.9212596  22.8824387  11.1825438  23.7952423  -8.3069668
  10.9658375  24.5540028  -7.6620898  11.1077709  23.0443344  -7.6311002
   1.1549871  -2.5921721  11.2124119   1.9260887  -2.6810570  10.5837679
   1.6006149  -1.9433933  11.8258715 -29.7682762 -16.9656448 -11.2675562
 -30.7017632 -17.1931324 -11.2636776 -29.8177681 -16.0137367 -11.5612421
 -38.9594955 -20.7032738  -4.1852684 -38.3912735 -20.0049839  -4.5061049
 -38.4687157 -21.5212231  -4.5386143 -39.2692261  -4.0629892  29.2668571
 -38.7504539  -3.7464409  28.4891586 -39.3571854  -4.9981599  29.0198402
 -33.3704414  28.8908443  11.6541624 -33.7150345  28.6430912  10.8061581
 -32.6124115  29.3968143  11.4234228  27.3565693  15.0678835  33.9351578
  26.5066452  14.9905910  33.5236816  27.0766678  15.4913530  34.7937622
   9.2724113   0.5124898 -36.7333794   9.4015293   0.9579753 -37.6213188
   9.6598768  -0.3845826 -36.9962578  -3.2527957   6.7471499  15.1373053
  -3.0104561   7.3460646  15.8731451  -2.4160767   6.2119756  15.0488958
  43.2857513  21.0896854 -14.0252514  42.4340973  20.9994869 -13.5611677
  43.0327530  20.6604443 -14.8528585   6.3622642  15.3167048  24.6140232
   6.8892150  14.7488785  25.1901360   6.7666674  15.2901630  23.7692623
 -23.3072147 -30.4899921  18.6584358 -22.5548706 -30.8655987  18.1311092
 -23.5685711 -31.1793575  19.2140217  -9.7861986  -1.6204522 -19.7410374
  -9.7401676  -1.0088735 -20.5052662  -9.6429358  -1.0712830 -19.0168705
  -4.0003486 -36.3953590   4.1170359  -3.7257454 -36.3538055   5.0660567
  -3.3457620 -35.8561249   3.6845198 -26.2520351 -24.9764004  15.9502926
 -26.8415470 -24.7923374  15.1529837 -26.5597324 -25.8115044  16.3385563
 -33.4043961  12.1028929  35.9994049 -33.9959717  11.9798069  35.2715721
 -33.2992973  13.0398455  36.0396614 -22.5686398  28.7038879  -8.4696264
 -22.8114071  28.8538437  -9.3470612 -23.4366112  28.4349594  -8.0148916
 -17.1384525  36.1729240 -31.3085098 -16.8679752  35.5977058 -32.0578613
 -16.3277664  36.5514870 -31.0549927 -10.4353456 -13.5461502 -35.4810638
 -10.7564278 -12.6153746 -35.4537735  -9.8519592 -13.5531931 -34.7326622
  21.8785324  41.1778259 -19.4591656  20.9581146  40.8047256 -19.3783207
  22.3369370  40.5608635 -18.8046627 -10.2096157 -16.6545238  11.7186337
 -11.1398621 -16.7933426  11.3109713  -9.9864225 -15.8257418  11.2446375
 -28.2134819  -2.0685060 -25.7769527 -27.7581177  -2.9340291 -25.7793808
 -29.0673618  -2.3765714 -25.3007603 -44.1033325 -13.3317165  11.8625555
 -44.6327744 -13.1820984  12.7103815 -44.4116859 -14.2930412  11.7305279
 -23.7195091  -2.8747838 -33.2829018 -23.4236965  -2.0158949 -32.9040298
 -22.9535351  -3.4252121 -33.1398773 -27.9135036  13.4472933  17.3048534
 -28.1254063  13.9650898  16.4397469 -26.9614162  13.3428202  17.1225204
 -15.8169079  31.7392807   0.1196053 -16.6466198  32.2378044  -0.1699894
 -15.6480055  31.2793865  -0.7552471 -15.0280313   4.0629873   4.4374032
 -15.1171227   3.1227286   4.7942181 -14.9241076   3.7952328   3.4624913
  22.9517307  36.5511208 -11.0591917  22.7220936  36.3021965 -11.9807434
  23.5070133  37.3059540 -11.3432112  18.0825233  22.0645123 -10.8919735
  18.6608391  22.6844101 -11.3175488  17.1690216  22.4257736 -11.2042074
   2.3876376   8.1851568 -23.9922962   2.4898462   7.2415414 -24.1731949
   1.4502203   8.3272486 -24.0617657  12.9288988  50.5878105   0.5438451
  13.8501053  50.4800720   0.2929366  12.9915524  50.3504333   1.5219203
 -41.9456139   1.3908037 -22.0916176 -41.2698669   1.3794949 -22.7898502
 -42.3547134   2.2766023 -22.2519836  33.7811737 -17.3071041  14.3817043
  34.3088188 -18.1497231  14.5141468  34.0188942 -16.8210659  15.2070370
  -8.3814507  24.4273453  23.7759171  -8.9535789  23.7601891  24.2786694
  -7.9286890  24.8557453  24.5663414 -41.1254272 -17.9335957   0.4855904
 -40.2845917 -18.0377007  -0.0799682 -40.9554672 -17.0001030   0.7485205
  14.7002020 -21.5047836 -11.9094677  15.0517206 -22.4456234 -11.7887554
  14.1910372 -21.6635628 -12.7166662  31.5467815  -5.3650799 -20.4577255
  31.7452431  -4.5282707 -20.9748211  30.8784313  -5.7463846 -21.0931225
  23.8075943 -10.5288143  -8.9473286  22.9760990 -10.5200939  -9.4329214
  23.8751183 -11.4852448  -8.8263273  33.8748131 -10.7337923  25.8581429
  34.2571373 -10.8543863  24.9464417  34.3463364 -11.5022287  26.2977180
 -38.4827499   6.3237596  12.2820139 -38.7277641   7.1586256  11.8351269
 -38.9937820   6.4086394  13.1054468 -25.0045071  31.7051601 -13.2524328
 -24.0436001  31.9893379 -13.4198895 -25.4695187  32.5230751 -13.4502993
 -15.6494741 -13.9604197 -18.7278652 -16.1861439 -13.2597218 -18.2657528
 -16.0198498 -13.8355808 -19.6311188  30.0059586 -24.7609844  16.2309017
  29.4912376 -25.3640995  15.6623192  29.3921204 -24.0096436  16.3178577
   1.3766910   5.0362854 -19.7082939   1.3013787   4.7599030 -18.7744083
   0.8310258   5.8520031 -19.6253529 -30.7133884  -6.5498791  -1.8753943
 -30.6456509  -5.8849201  -1.1824069 -31.6750298  -6.5573325  -2.0717483
 -43.3323860  22.3541527 -16.7819118 -42.4240990  22.3135738 -17.0862408
 -43.6510506  21.5743828 -17.2991238  12.3962898 -35.6327133   7.0667067
  12.0733261 -36.2110672   7.7828994  11.6073093 -35.6758995   6.4696093
 -13.7633333  10.3020592  45.9541817 -14.5841045  10.0866146  46.4715691
 -13.9966640  10.0471001  45.0871086 -32.6446152 -22.1829815 -10.8958740
 -33.5384064 -21.7799816 -10.8872204 -32.5316124 -22.1531792 -11.8979406
 -17.5651760 -40.2629128 -16.4969215 -18.4093094 -40.5127869 -16.1190281
 -17.2432575 -39.5187073 -15.9299507 -20.7782898  17.2772694 -31.9472828
 -20.7052670  17.2267208 -30.9448662 -21.7251873  17.6192570 -31.9338150
 -37.8713455 -13.7800751  28.7048855 -38.3303833 -13.6575918  29.5502605
 -37.5486069 -12.8499880  28.5186062   8.4062662 -31.7720089   5.5872707
   8.1542950 -32.1052589   6.4616175   7.5227394 -31.7326431   5.2138495
  18.5019188 -19.9718895  10.8453989  19.2895508 -19.3861465  10.6939926
  17.8908348 -19.2866001  11.2490940  12.1169224 -25.5677605 -32.3037567
  11.6547070 -24.7737694 -32.5024910  11.4857082 -25.9737091 -31.6346416
  16.6508198 -29.3717747  39.9838104  17.4865780 -28.8539772  39.6861877
  16.0287323 -28.6577873  39.9865990   7.6561041  34.5991173  12.5032949
   6.7411008  34.2395630  12.3049765   8.1591434  34.1177902  11.7861080
 -43.5056839   8.0664740  15.1254206 -43.8585548   8.0572176  14.2426395
 -42.8344383   7.3832183  15.0791283 -28.7681770 -19.4434319 -25.7491283
 -29.5388870 -19.8478699 -26.1475334 -29.1783295 -18.8638306 -25.0219173
  30.8618298 -33.7458763  13.2403049  30.3711510 -33.1878014  13.8921480
  31.4356899 -34.2027473  13.8522663  21.0315228 -30.0905437   7.5309644
  21.1154518 -30.8088570   8.1877241  20.5380955 -30.5650368   6.8693328
  -8.7263918  33.1937370  24.8543530  -8.2171478  32.9440308  24.0433846
  -9.6402321  33.0102386  24.5543194  43.0362053  -7.2903447  16.9870548
  43.1170845  -6.3614674  17.3384094  42.7292671  -7.1757665  16.0747414
 -32.4242210 -27.9433098   4.6653881 -32.0006790 -28.6836529   4.1188159
 -32.3177223 -27.2871513   3.9459627   2.4851561 -34.2027435  19.3071346
   3.3416476 -34.1532173  19.8427181   1.8103274 -34.2580490  20.0374126
   2.6171334  -3.8767312 -50.2684784   2.3872745  -4.0131936 -51.1722374
   2.0750015  -3.1468489 -49.8734550  13.7610006  -8.0539055   5.5153446
  13.8487215  -7.4166155   4.7342720  14.2602329  -7.5490675   6.1867709
 -20.9295788 -22.6408844  11.4001112 -21.5851555 -22.0374565  11.6961622
 -20.3955746 -22.8643799  12.1368246  15.5177784  31.2481441  -3.8218772
  15.8085356  32.1313858  -3.7339678  15.7441263  30.9973202  -4.7536182
  20.9362240 -15.0862370 -11.0443335  20.7058296 -15.2586498 -10.1141539
  20.0890350 -14.7043009 -11.3596487 -13.3544083   1.5034674 -35.5117073
 -13.0271072   2.4221277 -35.4856720 -13.1594381   1.2315713 -36.3895149
  22.5585594  -3.5748055  30.6932812  22.7942581  -2.6805882  30.9100780
  22.7299118  -3.9548588  31.6091785  -2.6480184  43.6278992 -14.9731741
  -2.9397287  43.6320305 -14.0619202  -3.5369165  43.9604721 -15.3784552
  -8.6985807  13.6651096  37.3948135  -8.6164036  12.7725563  37.7003136
  -9.3349047  13.5696869  36.6578598  20.0323944  13.8143187 -26.1073742
  19.7281132  13.3696461 -25.2703381  20.9342670  14.0830164 -25.8511047
 -41.5997086 -19.7871189 -15.1191301 -40.9277840 -19.7517548 -15.7828150
 -42.1716042 -19.0362034 -15.3328133  34.9247589  19.5993729 -26.7134590
  34.9094429  20.2051563 -25.8997002  35.2063408  18.7591896 -26.2390881
 -36.1924286 -16.8244953 -27.8096352 -36.2807884 -16.3855228 -27.0099182
 -36.0410767 -16.0873013 -28.4353600  42.0356636  29.8737869   5.7082329
  41.5760651  30.4043636   4.9767647  42.5156822  30.6851540   6.1063232
  40.8320732   6.5000892  -5.8425741  40.3825378   6.7698851  -4.9856071
  41.7710953   6.7172256  -5.6591520 -13.8880606  -3.9181077   0.5778268
 -14.8115730  -4.0813117   0.7382706 -13.4924860  -4.1327701   1.4263446
 -41.5170479   4.1045604  -6.7055130 -42.1456795   4.3050151  -5.9851427
 -41.6963234   4.7975488  -7.3275070 -12.7928038  26.7538090  40.6856079
 -12.5130644  26.7063503  39.7170830 -12.0778074  26.2606716  41.0692940
 -12.8040352   5.7798100  -3.1627848 -12.5778351   6.5506744  -2.6102583
 -13.7586432   5.8441477  -3.0748117  14.4069109  41.1135139 -14.9519625
  15.2392797  41.2108078 -15.3882856  13.9578524  40.6318893 -15.6693306
 -27.7069702 -38.8615150  14.7307072 -26.7135181 -38.8577843  14.6856279
 -27.8879395 -37.8902512  14.6971827 -11.7487955 -43.5835991  14.7530069
 -11.7294874 -43.2128334  15.6255131 -11.9904041 -44.5253220  14.9161406
 -16.7954407 -40.1186943  21.5129280 -16.0454369 -40.7565002  21.7190838
 -16.2066498 -39.3370743  21.2551594  15.5482912  -8.2695990  -6.1022062
  15.1909227  -8.6732349  -5.2302246  16.1197357  -9.0135984  -6.3775916
 -21.6599388  18.6231995  35.4621239 -21.6269608  19.5001583  35.1801949
 -22.5083504  18.5546856  35.9923744   5.3308859 -39.8680344 -25.4330044
   5.5483966 -40.8273849 -25.5280418   5.3214674 -39.6407433 -26.4364338
  36.9538231 -32.4633560  22.0881824  36.6315994 -32.0344963  22.8797073
  36.0491524 -32.6928749  21.7102051  27.4648438 -10.6054831  34.8272514
  27.7124672 -10.1184158  33.9610863  28.3812084 -10.9847145  35.0314026
 -16.9994965 -28.7422218 -20.7632179 -16.6366730 -28.3757915 -19.9806881
 -17.3485413 -27.9349041 -21.2166195  20.3714409  15.1339207  19.2461624
  21.1899719  15.2210655  18.7174950  19.6970558  15.2518501  18.6006088
  13.1255016 -31.7574692 -32.5045853  12.9056587 -32.0375252 -33.4764709
  13.7807074 -32.5074959 -32.3079567   6.0673361 -10.8992147  -1.1097133
   5.1622882 -11.0896788  -1.4333408   6.2006507 -10.0986004  -1.6358448
  15.0637197  25.9066448  -9.7072563  14.7157927  25.2287731 -10.3417482
  14.3206787  26.5178528  -9.6844883   3.7185879 -16.8875999  28.0164433
   3.0588169 -16.1824284  28.2501431   3.5108445 -17.5132694  28.7104168
  27.9772148 -20.1575470   0.0952769  27.7191734 -20.9779358  -0.2467130
  28.0343609 -19.5982647  -0.6869299 -33.2725182  -0.5324529 -16.9687042
 -33.6299858  -0.9001659 -16.1216183 -33.1068993   0.3607073 -16.6470299
 -17.3275452 -45.9308624   9.7736225 -17.4853039 -46.7310791   9.2942705
 -18.1630650 -45.6621132  10.1719437 -10.0215511  -3.7574854   1.9007821
  -9.5147333  -2.8429163   1.8918455  -9.4988604  -4.1876950   1.1681343
 -36.5363960 -11.3880177  29.0295734 -35.7809715 -12.0496340  29.1874790
 -36.1146469 -10.6086445  29.4803982 -13.3669100 -38.3306618  14.3235569
 -13.6862755 -39.1825714  13.9304380 -13.4500265 -38.6537857  15.2826471
 -17.4816837  26.3239365  17.3972397 -17.3590374  27.1921654  17.8249397
 -17.4979935  25.7590542  18.1513195  -0.8939133 -24.4134560  18.7454338
  -0.5234537 -25.1373558  18.2794342  -0.2656842 -24.3847847  19.5361385
  18.2462978   0.5604262  45.8667221  17.4540691   0.0264858  45.6931496
  17.8469105   1.3181802  46.3273964  22.6020947 -26.6691055 -30.5925789
  23.3931599 -26.7021332 -31.1620770  22.4085560 -25.7546844 -30.4897022
  -3.5563581  -0.6520036  41.4004059  -3.9395325   0.1749156  41.7415390
  -4.2918835  -1.2808279  41.4839249 -13.3557262  23.6476974  38.8980179
 -12.8177624  24.4811287  38.8323212 -14.1234694  23.9070892  38.3927345
 -16.3133297  -4.0035357  44.9852791 -15.6748943  -3.2671967  44.9317093
 -16.4285011  -4.1801958  44.0401382 -13.1353426 -20.6373329 -23.3392487
 -13.0218916 -20.4891720 -22.3399239 -13.5936937 -19.8164253 -23.5370426
  -4.5588651  22.1086960   8.7635689  -4.3075099  21.9061871   7.7998500
  -4.2552743  23.0549488   8.7774010  12.4071798  20.4276505  26.8443947
  13.2646542  20.5696411  26.3799019  12.1630363  21.4038544  27.0382614
 -22.5593910   5.0505886  31.9112396 -22.2647629   5.6532393  31.2171574
 -22.3535500   5.6519227  32.7124557  18.1339512  31.4637203   8.3563881
  17.4535007  31.8400593   9.0071735  17.5683346  31.0969124   7.6901150
  24.6138897  14.6178379 -14.9506531  24.5949230  13.6227694 -14.7855425
  24.3204498  14.6831999 -15.9194231   9.5443039  13.7416000  33.4563103
   9.2759066  14.1211720  32.5823021   8.6878424  13.2581320  33.7013741
   5.5232067 -12.4404812 -15.6747417   6.5056305 -12.3032951 -15.5013113
   5.3042865 -11.5543013 -16.0451546  42.4506607 -21.6154690  -6.8987284
  41.5427895 -21.5842171  -6.5593147  42.3047638 -21.9620667  -7.7906232
 -25.7983246   6.5918469  29.6121464 -25.5331841   6.9162827  30.5027237
 -25.0501385   6.9768744  29.0895634 -43.9332314  20.5872879 -18.5743389
 -43.4663391  19.7353325 -18.8471375 -44.0365181  20.9902096 -19.4264202
 -28.5622082  -8.7270174 -25.1842556 -27.7629070  -8.6775494 -25.8025379
 -29.2467136  -8.6652956 -25.8710251  37.2441368 -14.9994707 -18.8722878
  37.2025833 -14.0840607 -19.2282658  36.2944908 -15.2034245 -18.8710995
  25.9001446  -1.1688683  43.0437202  26.6010971  -0.4461771  42.9662666
  25.6256618  -1.1835443  42.1322060 -28.2924671  32.7062492  11.0082140
 -28.1928482  32.7697716  12.0037899 -27.8259449  33.5157852  10.6999760
  34.7493401  -5.7569036  -9.2595844  34.7442436  -6.5300164  -8.7081614
  35.2225113  -5.1225882  -8.7100668 -23.3859062 -23.7357960  13.6338301
 -23.8567314 -23.0515614  13.1549873 -23.5072861 -24.4617672  12.9437008
  40.4878922  18.3907528  16.3780174  41.3638611  18.0186024  16.7829723
  39.8887291  17.7225075  16.6850853  21.3687630 -21.0818634  25.9689293
  21.2307358 -21.9289742  25.5707722  22.3183861 -20.8599606  25.7569218
 -31.0319347  24.0410423 -14.9733315 -30.3441277  24.2170525 -14.2941847
 -30.5261822  23.7894516 -15.8037357 -33.8104973 -11.7385368   8.6514816
 -34.1361618 -11.8345222   9.5379515 -34.3135567 -12.3485518   8.1552877
  13.5354090 -16.7263298  -6.5807939  13.2865839 -17.1320667  -5.7027831
  13.0749702 -17.4902554  -7.1464677  31.5980473  17.7273598   7.7450204
  31.2465305  18.4329529   7.1054397  30.9491043  16.9845505   7.5137491
  41.0529213  31.8001404  13.6069155  41.6836319  32.1395683  14.2861719
  41.5539627  31.0261211  13.2146835  39.9321823   1.0589707 -31.6394787
  39.3303833   0.5326225 -31.1558838  40.3608818   1.6140034 -30.9492950
  28.9868336 -12.1792984 -35.6309090  29.7941284 -11.7108097 -35.3295975
  28.5759277 -12.2260733 -34.7151489 -36.4694786  -9.5225344 -14.1679583
 -35.6495514  -9.9019756 -14.5400047 -36.9415588  -9.3220043 -15.0638018
  42.2152023 -31.4156380  15.1515694  42.2269783 -30.6910114  15.8986702
  41.2730522 -31.4722824  15.0471630 -25.4534321 -30.2930584  -4.0586176
 -24.6057892 -30.5435581  -4.5129504 -25.6380043 -31.1558571  -3.6075537
 -35.1128883  12.0165434  33.8881683 -34.9698448  12.4795284  33.0360489
 -35.0689201  11.0683956  33.6106453 -26.8411160 -30.3462963  -6.5190520
 -26.3907719 -29.8375759  -7.2437797 -26.1558666 -30.3438988  -5.8610535
  -4.1962495   1.6249141  21.7435760  -4.0407758   2.4957025  22.1253891
  -3.8166857   1.0245099  22.4257526   0.8022012 -24.8065739  24.3377037
  -0.1008615 -25.2491188  24.3165092   1.3549699 -25.4113522  23.8466377
 -40.0078468 -23.9665489  -7.3349566 -39.1356850 -23.8288612  -7.0912905
 -40.3522415 -24.6703949  -6.7310743  -3.5890987   7.7497106   4.2813430
  -4.3472114   8.3284559   4.1689162  -4.0324454   6.9870481   4.7297883
 -39.7056198  12.0960398  30.5867748 -38.9536743  12.3433752  30.1144295
 -39.3434258  12.0033092  31.4842758 -20.5020332 -15.8424082 -25.4600487
 -21.3444290 -15.3279305 -25.5954781 -20.7737617 -16.7316303 -25.2316589
 -16.3201084  36.3334732 -37.3562813 -16.7546234  36.9665184 -37.9557152
 -16.1092949  36.9221573 -36.5617065  20.4192429  35.1246605  -0.0485888
  21.1946487  35.1837196   0.6269898  20.6483917  34.2405815  -0.3889439
 -17.7279148 -13.0599918  18.8627739 -18.0901184 -13.6644106  18.1136513
 -18.1897755 -13.4740572  19.5923405  21.2253666 -13.9243937   7.6707606
  21.7319317 -13.0961475   7.4502163  20.3596554 -13.5525808   7.8442025
  -4.0513268  17.4830379 -30.2386684  -3.8518746  17.9547043 -31.0837288
  -3.2039781  17.0150909 -30.1192322  11.6443501  45.6832085 -23.1596718
  11.4719133  44.7578087 -23.3491096  12.3727274  45.5636902 -22.4850864
 -37.1774101   0.6398034  -3.3376508 -37.8480339   0.0629671  -3.7278957
 -36.3571320   0.2099375  -3.5209033  15.9444065 -15.8056326  -3.4114041
  16.2333450 -15.1791515  -2.7320540  15.4686165 -15.2292671  -4.0093822
  11.7859020   1.9534597  -6.9392185  11.5025845   2.0225425  -7.8704925
  11.0295258   2.4336746  -6.4790888  30.1447811 -22.1387539  22.8847790
  30.7781219 -22.7035580  23.4053822  29.6312313 -21.7530212  23.6351280
   4.6871514 -27.2234173  -4.0024729   4.6051106 -28.0432816  -3.4309969
   3.7653413 -27.2068481  -4.3754082 -13.8472471 -29.8999329  -0.7993425
 -13.4411774 -29.0228157  -0.6922180 -13.8383503 -30.0596256  -1.7484809
   0.4979635  31.4952583  20.0150967   0.4003798  32.3703880  19.5845890
  -0.1471319  30.9559345  19.4465885  23.6151600  -4.1170855  20.2313290
  23.6631660  -4.0367846  21.1776695  23.4848118  -5.0714664  20.0804272
 -31.5644798  -0.2985550  -5.0413198 -32.2919884   0.3129106  -5.1511946
 -31.7685146  -0.7115239  -4.1952553 -14.0375824  -8.7063017   0.2425326
 -13.7391682  -7.7716517   0.1611111 -13.1331940  -9.1500502   0.0240845
  -5.3183103   9.2397614  48.3582344  -4.4097357   9.0572462  48.1246758
  -5.2266049   9.5080729  49.2766876 -27.1317101 -14.5985165 -25.6148090
 -28.0497704 -14.9388561 -25.9120922 -27.2816467 -13.6626339 -25.6274796
  -9.2371292 -18.0397396 -27.7422981  -8.5516167 -18.7080021 -27.4404640
  -8.7532167 -17.2660007 -27.8303928 -40.4222717  -2.0198338  -3.6137142
 -40.8458481  -2.2523949  -2.7579138 -40.9269142  -1.2408884  -3.8800583
  -9.5500050  -8.8041983  12.8705969  -9.5391417  -8.7737112  13.8839312
  -9.3937502  -9.8074989  12.7893419   5.9436145  -5.3878770  18.6459332
   6.2605829  -5.9299788  17.8657684   6.4590483  -5.8663201  19.3501205
   2.7985399  27.0814438 -29.9429550   3.6386659  26.7390137 -30.1570206
   2.5670488  26.6917782 -29.1105270   0.3353839  28.3249130  10.1441221
   0.4319923  28.0445156  11.1047525  -0.2528438  29.0578938  10.3039427
 -13.6460533  21.9719925 -45.9192047 -14.3694811  21.3573933 -45.6106033
 -14.1829042  22.8249836 -45.8533478  15.5125446 -25.7555885 -44.8381996
  14.5482836 -25.3855667 -44.8578720  15.3070068 -26.4984989 -45.4968376
  35.8659935 -24.3215942  -1.3524606  36.7388344 -24.1450539  -0.9947605
  35.7623253 -25.1283283  -0.7229538 -23.6052513 -37.8148193 -16.8469849
 -24.0193195 -38.5876160 -16.4097157 -23.5990772 -38.0863533 -17.7755432
 -11.0759192  19.3215790 -29.7875462 -11.6024427  19.2567482 -28.9507332
 -10.9722633  18.3286457 -30.0205650  18.0965023  -1.7726909  -9.0635920
  18.6613140  -2.4057269  -8.5798006  18.7729626  -1.1498580  -9.3744431
 -30.9531326  23.7045879  22.0532913 -31.0671253  24.0345516  22.9592571
 -30.7308350  22.7387409  22.2959957 -37.5555191 -16.9229660  11.0567932
 -37.9227371 -17.6191807  11.6640549 -37.5605240 -17.3846226  10.1956825
  44.3441505  17.1485062 -14.0356493  43.3975372  17.4300270 -13.9415560
  44.5058289  17.2401943 -14.9685926   7.3373704 -15.4602022  23.0762939
   7.5890393 -15.6751204  24.0241604   6.8376374 -14.6389637  23.2123432
   7.1108999   4.7680387  -7.8898039   7.9352388   4.3080750  -8.1819191
   7.5206628   5.6429019  -7.7226610 -26.2723389  -2.2225370 -21.6042271
 -26.6162548  -1.7377580 -22.3893547 -25.3006840  -2.0081885 -21.6955261
  35.4470253   1.1527139  14.6794424  36.1751671   0.6652815  14.2578621
  35.5373917   2.0351110  14.3095932 -29.4169807  -7.3231282  17.3662186
 -30.1083755  -7.6502671  16.8863869 -28.7030125  -7.9334960  17.2203579
   2.9368498  -1.4140358 -44.1016579   2.8031082  -0.6152819 -43.5272560
   2.5726190  -1.1337478 -44.9290352  -8.3163204  -9.9269943 -25.3294353
  -9.0110998 -10.2824469 -25.9362240  -8.2468376  -9.0180187 -25.7363014
  25.2912598 -19.2785645 -29.5959949  25.9845905 -18.8985386 -30.1819077
  24.7587605 -19.8965511 -30.1230698  24.5503349 -33.8769493   1.4961770
  25.1800823 -33.1838989   1.2951657  23.9464817 -33.8389511   0.6958692
  -7.5585961  44.5815201  18.5660439  -8.2649765  44.0290298  19.0550709
  -7.4713345  44.0138130  17.7850456  -0.8376094  39.9685783  26.0949326
  -0.6303350  40.1112061  26.9882736  -1.4929271  39.2395821  26.1446419
 -20.8107471  20.1724148 -11.8574886 -20.0017338  20.5909462 -12.3201265
 -20.2767239  19.9035530 -11.0322428  18.2049599  11.8221598  18.0420361
  17.2502346  11.6676636  17.7409153  18.4784889  12.3621902  17.2697449
 -25.3352242 -33.1307793   9.0623045 -24.6105690 -33.0182457   9.6267776
 -24.9420719 -33.3915749   8.2423820 -34.7759438  -5.3164325 -26.0612106
 -35.1279488  -5.7788582 -25.2579308 -33.8427811  -5.4978743 -25.8915291
 -24.0652351  29.8085213  -0.2363514 -24.5257511  30.6048508  -0.6003994
 -24.1524448  29.2178612  -1.0126114  14.3561754 -28.9516144  21.8432217
  14.9907370 -28.3587513  21.5333557  14.0439930 -29.3974018  21.0695648
 -21.7028484  26.2689381  -2.1472704 -20.7795143  26.0470963  -1.9150442
 -21.7364960  27.2397690  -2.0109363 -22.2750492  23.0549583  11.5576725
 -22.6647720  22.8931980  10.6868792 -21.4030514  23.4608459  11.3495016
 -33.1736183 -29.6824951 -20.9458923 -32.3023567 -29.8913479 -20.5779419
 -33.4185944 -28.9301567 -20.3941231  16.9202614  14.8611116 -11.3218622
  16.6817379  15.8144188 -11.3947687  17.3257599  14.8954821 -10.4771891
 -15.9886141  10.9462929 -30.0344200 -16.4557304  11.5021343 -29.3783951
 -16.4392986  11.1943855 -30.8424282 -39.9692841 -27.4106197 -18.5037479
 -39.7902946 -27.4866734 -17.5625000 -39.3748055 -26.6239300 -18.7288895
  -3.9315977 -14.8267565 -33.6150665  -4.4078479 -15.6900434 -33.4212418
  -3.6170604 -14.6096115 -32.6933823  29.1248493  22.7481422  22.0638294
  29.0480728  22.2229176  22.9374599  29.3168640  23.6294918  22.4851017
   3.0011463 -13.7249651 -47.5145187   3.8734636 -13.2570486 -47.3962364
   2.8326449 -13.6380424 -48.4692116 -37.7544861  16.9356709  20.3136997
 -37.4856377  17.1613083  21.2209358 -36.8365860  16.6677570  19.9760189
   4.0199175  18.4910221 -11.5881214   3.4634316  19.0233517 -11.0192852
   4.3916545  19.1303940 -12.1995287 -39.1574707  20.0188351  12.9658432
 -39.4644852  19.7580891  12.0939121 -38.7644310  20.8998299  12.7409582
  19.2755337  -6.6011357  14.8828745  18.6402283  -7.1282787  15.4245625
  19.8591709  -7.3292003  14.5687962  -9.2432432  19.2474880 -43.1735954
  -8.8651590  19.5872250 -42.2948723 -10.1077890  19.0509148 -42.9129868
   5.4990258  32.8243828  25.5270195   5.8400273  32.7750626  24.6415100
   4.9273820  33.6052704  25.5078621  38.4597473   9.7741127  23.7143497
  38.1590347  10.6704187  23.6216965  37.7182426   9.2078867  23.6568146
  -1.0253980  11.7511635 -15.0233889  -1.3854661  11.9445028 -15.8788366
  -0.3248173  11.1454887 -15.2664270 -12.0886374 -34.9302826   8.8246975
 -12.0357208 -34.9652939   9.8265667 -13.0466518 -34.9738274   8.7708063
  16.5593605 -19.8881569 -39.8374138  16.3025608 -20.7015858 -39.3805351
  17.1508274 -20.3617153 -40.5247574   1.1757704   3.5903563 -17.2998390
   1.6157204   2.7659111 -17.6254520   0.3214384   3.1827424 -17.0618515
  28.9805202 -17.6475697  32.4406013  29.7420464 -18.2334099  32.6334419
  29.3126106 -17.2590904  31.5544624   8.4728746  16.5310917 -13.1858654
   7.8332767  17.2450657 -12.9148722   8.1228857  16.3920403 -14.0933552
 -39.9660835  -3.7724481  18.5181904 -39.4253426  -3.0771646  18.8113270
 -40.2816010  -4.1370978  19.3792133   2.8677580  10.7473936  -6.1777315
   2.0358353  11.2764091  -6.0227895   2.5990424  10.3152676  -7.0676436
  43.3507690 -18.7687740 -16.8929615  43.4559250 -17.8097496 -17.0557213
  44.2366562 -19.0592861 -16.6377964   8.8278313  37.1001053 -21.9249725
   8.3078890  36.6314888 -21.2057590   9.6863565  36.6436806 -21.7820721
   8.2584200 -39.8417015 -11.3914318   9.1042757 -39.4766769 -11.0132322
   8.4548435 -40.0005074 -12.2795610  11.6308498  32.3414154   6.8060608
  12.5404539  32.2509384   6.5147529  11.0801229  32.1193733   6.0459409
 -15.8136473 -21.5121899   3.8430042 -16.0553112 -21.2837582   4.8014398
 -16.1134644 -20.7380142   3.3770869 -18.7999020  -6.7400932  -0.9078929
 -18.8663788  -7.3482976  -0.1469398 -19.4960175  -6.0362306  -0.7063338
  -1.5906390  11.0488071  -0.4732704  -1.6544853  11.3885250   0.4528896
  -1.0799228  11.7163010  -0.8990831   3.1066182  19.9080048 -32.4139023
   2.9871025  19.0797081 -32.9477081   4.1216693  19.8227787 -32.3378220
 -20.4530602 -30.5109367  -5.7400799 -19.7633743 -30.0255566  -6.2293634
 -20.8102913 -31.0527821  -6.4529610 -30.9461002  20.8701401  26.8155060
 -30.6427803  21.6267776  26.2186451 -30.0180988  20.6264191  27.1520863
   3.3148386  19.3623524 -21.3848038   3.7778249  20.2321472 -21.4504890
   3.4031525  19.1942806 -20.4038887 -40.4764061 -26.1944504  -9.4125233
 -40.1793213 -25.3786011  -8.9750261 -41.0479546 -26.6175804  -8.7279558
   4.2599664  -8.8961573 -31.5587769   3.6416290  -9.1057949 -30.7868156
   3.9909368  -8.0036373 -31.7793560  -5.0965147   8.0963144  28.8461361
  -5.3773885   8.9011908  29.2805729  -4.5672593   7.7451210  29.5860882
 -22.3892689 -13.5025606 -13.5424356 -23.2442951 -13.4484987 -14.1180735
 -21.7284851 -13.2695532 -14.1779175   1.6996899  17.8806038 -29.5685997
   1.3492985  17.0633831 -29.1859016   2.3498952  17.5488300 -30.2082748
   8.0532818 -16.1741142  25.5265865   8.2611628 -17.1176243  25.2610207
   8.6515846 -16.0690632  26.3255424 -30.7223091  11.1241722 -23.7932491
 -30.3892593  10.2369137 -24.1309071 -31.6058388  11.0479898 -24.2664375
 -32.7824898  31.1574345   1.3532692 -33.0741692  30.2406254   1.6362084
 -32.4730148  31.5085354   2.2055695   0.3390055  43.5350113   4.8031101
   0.5307295  43.7588272   5.7632790  -0.5064242  43.0527191   4.9491711
 -20.7261295 -28.5810623  23.1359348 -20.0741634 -28.1300888  23.7647495
 -20.4118214 -29.5427608  23.2126217  26.0966759 -26.0896988 -25.9882450
  26.8656750 -25.6645145 -25.5475864  25.5782547 -26.4630566 -25.2685814
  -1.8136642 -42.4760971  -5.6644130  -2.3348289 -43.2237701  -5.2656751
  -2.1962612 -41.6881485  -5.1816020  30.8346577 -25.6026649  -3.0082297
  30.7934093 -24.7958755  -2.4899302  30.5321922 -25.3369293  -3.8796244
 -12.2464790  24.8481789  13.7432337 -11.4145470  24.8774223  13.2132368
 -12.0528402  24.0048599  14.1733665  -4.1958351 -45.2018242  15.4503937
  -4.0058808 -44.6945534  16.2568493  -5.1736135 -45.4115257  15.5320692
 -42.4234428 -22.7963886 -22.5522480 -43.0812492 -23.3258438 -22.0074692
 -41.7333984 -23.5500889 -22.5915642 -25.5494194 -31.3276730  15.9591455
 -26.3268814 -31.1034088  16.5075130 -24.9348221 -30.6246929  16.3505440
 -37.0538139 -23.6586552  -4.8069086 -36.1800461 -23.4982548  -4.6105733
 -37.5082588 -24.0012913  -4.0537577  30.2731056 -26.0717430  18.6589985
  29.2798672 -26.1273117  18.7539234  30.3618793 -25.5500050  17.8385258
   6.2579908  27.7517395  24.8614368   5.6861806  27.7792587  24.0319710
   5.5269399  27.8343277  25.5346088  12.0806322  19.7252121 -22.5170574
  12.3946037  20.0175629 -23.4211407  12.9449406  19.8947430 -22.0624504
  25.4140320  24.1736622   0.3224988  24.9789810  23.4585838   0.7570831
  25.5460835  23.8345490  -0.5462360  32.9892273  -4.0124307 -33.0384102
  32.1148834  -4.4072242 -32.8753395  33.5048790  -4.5618930 -32.4365273
 -18.9978943  15.7750864  10.7702570 -19.7087173  15.7896328  11.4718447
 -18.2292442  15.6086102  11.3226461 -12.4985371 -15.2916451 -35.2179031
 -11.5805206 -14.9538183 -35.3246384 -12.4523363 -15.7639828 -34.4076843
 -14.3469448 -10.6360407   7.4772534 -14.3330936 -11.5531292   7.4065552
 -13.5750093 -10.2684660   7.8797812   7.4548807  -4.6277194  41.9774780
   8.0308609  -5.2466164  41.4430237   8.0985947  -3.9760015  42.3277168
   7.5229387  25.2082043  36.4911346   7.4903440  25.1683598  35.5516396
   6.6564627  24.8063507  36.7235374   4.5504084 -36.6425514 -24.3718014
   3.8177836 -37.0647926 -23.8026562   5.1425142 -37.3830643 -24.4086990
 -32.8684654 -31.5436802  -8.9901867 -32.6631432 -31.4171638  -8.0429621
 -33.8403893 -31.4079571  -8.9442616 -33.7143860  -6.9147129  -7.9665694
 -33.4586258  -6.9294758  -7.0407052 -34.1312904  -7.7799945  -8.1340714
   4.7035060  -6.0949626  37.6336174   5.6131630  -5.7807479  37.3290558
   4.5467844  -6.7137108  36.9179726  28.1414833 -31.1233654   9.4009037
  28.1158867 -31.8453503  10.0643415  28.8180332 -31.4881210   8.8175688
 -19.8930969  25.8538723  -4.2299590 -19.5326500  25.7338123  -3.2723191
 -20.6270485  26.4751072  -3.9705906  35.0704193  27.5352306 -13.7421389
  35.5566216  28.3805389 -13.7151775  35.1557732  27.3017521 -14.6720057
  26.0349388  28.1225338  -0.8867142  26.4943905  27.4875793  -1.4542147
  25.4527435  27.5578766  -0.2884676 -24.1610126  18.5011673  15.4871273
 -23.4169502  18.0033875  15.9026575 -24.9230156  18.0961494  15.9321661
   1.5263638  -4.7973828   8.5825119   1.3532339  -5.7239461   8.7745647
   0.8917416  -4.5371842   7.9231038  39.6402092  -1.4026535  32.0812225
  39.9058456  -0.7803350  31.3759422  38.9707222  -0.8986869  32.5506401
 -17.3112087  -9.9115362  12.5985413 -16.8972645  -9.0383129  12.5885706
 -17.1905994 -10.1363440  13.5742970  -9.5571775   3.9220567   9.4465818
  -9.7498007   2.9648857   9.1270933 -10.2060995   4.3803024   8.8914309
  18.9299030  49.4486160 -11.0182047  19.0132618  48.4820137 -10.9045582
  19.7694931  49.6755867 -11.5297556 -31.4815559  -5.9851499  21.9215622
 -32.3556023  -6.4022970  21.5756149 -30.8963909  -6.7048955  21.6512375
 -11.6032476 -39.0323639 -10.2185078 -11.0014057 -39.6435738  -9.6625233
 -12.1229162 -38.5927086  -9.5214624  19.4444866  17.9059086  -9.2969055
  19.8766594  18.1371689  -8.4098835  19.6384239  18.6868553  -9.7441092
 -14.9977989  26.9152451 -29.2662334 -14.1288042  26.4715195 -29.1504288
 -14.7433109  27.7935562 -28.8788662  -6.0624161   8.4050064  44.5186729
  -6.3080254   9.2979956  44.1601028  -5.0942755   8.3766632  44.2646484
   0.8619450 -18.5234165   4.2669764   1.6089394 -18.8347111   3.6986601
   0.2555103 -18.2803516   3.5509949 -17.8862610 -45.7905540   6.0949402
 -18.6774540 -45.7096481   5.6011209 -17.1797104 -45.5345573   5.4813604
  -3.6908364 -11.4033995  44.2925949  -3.0572395 -10.6134853  44.3994217
  -4.4775639 -11.0280647  44.7108765 -25.8777447  21.1320953 -15.1063890
 -25.1922569  21.6170750 -15.6234074 -25.8036556  20.2440758 -15.4994640
  -1.8271482   5.4713097  42.9815598  -1.1388838   4.8603001  42.8460808
  -2.1099117   5.2209210  43.9188614   3.5757604   7.3916121 -38.8653145
   4.6420979   7.3615174 -38.7652817   3.6028211   8.4184608 -38.7981758
  41.8380966 -19.7429943 -14.6298456  42.3222046 -19.5664825 -15.4921665
  41.0627861 -20.2276745 -14.9556465  14.0691538 -19.7831726 -41.1099167
  13.6329231 -19.1264019 -40.5423889  14.9613724 -19.7460117 -40.7461510
   2.4126570 -40.2371101   8.1673899   2.8421118 -41.1076889   8.2215338
   2.9071782 -39.7193108   8.8359232 -35.1535835  30.3027935  26.3335114
 -34.3916969  30.8268356  26.5069046 -34.7893028  29.6163731  25.7336597
 -43.5556412  10.6147556   9.8617477 -43.2057152  11.1913071  10.5369883
 -43.9542007  11.3546906   9.2570200  16.1789589 -19.4580307 -11.0806866
  16.9212914 -19.2822380 -11.7239513  15.7071609 -20.2001610 -11.5254040
   0.8027644   3.0276937  -4.7735410   0.1508011   3.6640077  -5.1143684
   1.4807773   3.6694615  -4.3772774 -34.2864647 -29.4331970  18.8660069
 -33.3390465 -29.1051521  18.8792381 -34.2454567 -30.0281258  18.0501652
 -15.4256592 -27.6603355  24.6448345 -14.6969719 -27.1741638  24.1563988
 -14.8947849 -28.3537846  25.0693607  -3.5809658  30.9138889 -13.5238333
  -3.7847676  30.2606449 -14.1736174  -4.4535322  31.1184654 -13.1232939
  32.4496994   2.1287971  21.3429317  31.6724243   1.9396304  21.9422512
  31.9583149   2.3840508  20.5257587 -16.9868774  17.9721413  -8.9754829
 -17.7811108  17.3533688  -8.8346872 -16.9057198  17.7637863  -9.9107265
  26.3456440 -15.8127575 -26.2226276  25.4543915 -16.1094093 -26.1506748
  26.5784492 -15.5068521 -25.3092823   5.2957072  -9.8527050 -16.9432068
   5.7675123  -9.1637659 -17.5360222   4.3719397  -9.7054720 -17.3240261
  13.4876394 -18.3893700   1.8231578  12.8848877 -18.8759460   2.4483435
  13.7665873 -19.1511860   1.2788076  -1.8450538  -0.0495823  34.8543625
  -1.4969269  -0.5109992  35.6345367  -1.1839870   0.6426234  34.6878166
 -18.4543152  31.9246101  18.2003517 -17.7605133  32.4353371  17.6931438
 -17.9657459  31.7529430  19.0345154  21.7102375  44.0128937  17.5276432
  21.1502914  43.4797440  18.1874561  21.6340485  44.9001732  17.9217606
 -15.2345924 -12.1779346  -9.0205746 -16.0151711 -12.4322891  -8.4192972
 -14.5526915 -12.3922739  -8.3406401   8.3942957 -10.6795692  27.0380859
   9.2929392 -11.0202675  26.7691841   8.2690535 -10.1091251  26.2228394
 -41.4977379 -12.5069695 -15.1899929 -40.6260567 -12.1048565 -15.3154001
 -41.9771118 -11.9661226 -15.8558321  -7.6097660 -12.2803564  11.7294912
  -7.3027034 -11.5788441  12.2886658  -7.5494499 -11.9452705  10.8101168
  11.8147364  38.9832954 -21.1303902  11.3741531  39.6829529 -20.6008358
  11.3687983  39.0771866 -22.0239258  33.1296120 -33.7060471 -25.6381226
  34.1137199 -33.6592026 -25.6312008  32.9909935 -33.1118355 -26.4199142
  15.7698936  -7.4499874 -19.3849583  15.7149706  -7.7854819 -20.3136673
  14.8002424  -7.5399451 -19.1547604  -6.2784128  11.5185490  10.7397718
  -5.2960677  11.5626383  10.9721327  -6.2349577  10.9750919   9.9071465
  26.1912270  29.9188328  -5.3088431  26.0893173  29.0128574  -4.8907394
  26.1312408  30.4696083  -4.4765835  18.7055931 -17.0805531   3.9443400
  18.0216961 -17.5399513   4.5233450  18.9772549 -16.3541012   4.5010805
  10.5395355 -36.9918365 -33.4856911  10.1190519 -36.1804314 -33.8547668
  11.4441023 -36.6644363 -33.5342941 -24.9982166 -30.2061138 -17.3960590
 -25.4163246 -30.6588535 -18.1680622 -24.3272686 -29.6757393 -17.8049850
 -34.9133415 -20.5977154  -6.1529579 -35.0858612 -20.9283009  -7.0750089
 -34.6226006 -21.3709545  -5.7388592  24.0246220  -8.3102732 -23.0395889
  23.0588684  -8.3472958 -23.2479229  24.4698696  -8.2123022 -23.8988304
 -12.2800646  27.6086750   0.9052641 -13.1130123  28.0683537   1.0552007
 -12.4744034  27.0091934   0.1595350  18.4743481  -5.1659880 -29.5127201
  19.4027672  -5.4337120 -29.4579811  18.4365292  -4.9150724 -30.4612808
   0.4492610  22.6489544  -9.3468504  -0.1803836  22.9494553 -10.0079784
  -0.0987175  22.1523533  -8.7234097  -7.3547044 -26.0824261   4.7880063
  -6.9198132 -26.8846359   4.4574213  -7.4055586 -25.5547066   3.9419022
 -21.4818363   8.9459448 -47.3326187 -21.0092182   8.7854939 -48.1745415
 -22.0328369   8.0931749 -47.3439865 -26.8273087  14.6674232 -20.9733906
 -25.9112148  14.5326462 -21.3210049 -27.3418350  14.4338198 -21.7344036
  22.1409740 -11.5246458  31.5128307  22.9210587 -12.1667957  31.5189495
  22.5319118 -10.7363682  31.0786610 -22.9476738  30.7079811  15.5185757
 -23.2047825  29.8991013  15.0253096 -22.3997841  30.3230228  16.1966572
 -17.8770428   9.0538549  -3.0483551 -17.4400120   9.8760939  -2.6384902
 -18.1908607   8.6464005  -2.1879430  -5.0485983 -15.6280117  30.3338680
  -4.9924345 -16.5255127  30.0042000  -5.0981927 -15.0937624  29.4970226
  -3.7763569  27.7509022  -1.9087393  -4.4153247  27.1261959  -1.4689692
  -3.4066176  28.2075233  -1.1248525 -39.2855797 -11.8585644   1.2219647
 -39.6333466 -11.0664740   0.7277192 -39.8028564 -12.5781412   0.8301216
  42.5548058  30.2444248  -8.8917580  42.1038132  31.0997562  -8.9248514
  43.4347839  30.4874802  -9.2738829  30.0518379 -17.7581882  18.2679577
  30.0460663 -18.4509640  17.5561543  30.1684666 -16.9711113  17.7200203
 -39.1815033   9.3454494  13.8354597 -40.0019836   9.8368149  14.1859589
 -38.5119171   9.6810112  14.4868336 -18.8678837  -7.5163708  32.2125282
 -19.4157467  -7.3391809  31.4440002 -18.3820286  -8.3104696  32.0275574
  23.0501995  43.5016861 -11.3030825  23.7594013  43.4878960 -10.6431017
  22.8950100  42.5473518 -11.4346552  -4.1584268   4.0128040 -20.8367691
  -4.4221764   4.9429975 -20.8732605  -3.2606227   4.1019077 -20.3851528
  16.4644642 -10.8108597  27.9811516  16.4719906 -10.7862177  28.9232273
  15.9485865 -11.6282759  27.8162537  -3.7297878 -44.7376709  13.0098991
  -3.7383783 -44.8483887  13.9882650  -4.6775551 -44.8200722  12.7984190
   9.5643501  -9.0770817  -7.5134854   9.3093977  -8.4455290  -8.2229548
   8.9204836  -9.8181810  -7.6983666  24.9477997  12.1582470  22.0084839
  25.4077301  12.5733042  21.2534771  24.4307060  12.8788319  22.4204750
  18.0175533  -3.8465242  46.0400658  17.6248760  -4.6960816  46.4479446
  18.9450893  -4.0892978  46.2173882  33.3587379  24.5272942   6.9578700
  34.2069817  24.1701851   7.3950157  33.5349770  24.1236610   6.0657792
  29.3543968 -15.7762232  16.6719475  28.6042805 -15.3566427  17.1401634
  28.8345528 -16.2548828  15.9488392  -6.0487270 -11.8703032  35.3157768
  -5.4784369 -11.2600660  35.8420868  -6.2480025 -12.6083965  35.9651680
  17.1288280 -10.3325167 -14.4674454  16.3941593 -10.6880550 -13.9942551
  17.6108799 -11.1940155 -14.6439247   9.5338001  13.4867697   0.8703930
  10.1221752  14.1330414   1.4239913   9.8420954  12.6892405   1.3613672
   2.2667441 -35.6631088 -27.0426731   2.4543319 -36.6010399 -27.1141930
   1.9726148 -35.6357040 -26.0895748  21.9710674 -36.9919090  23.9377651
  22.6161613 -36.5601311  23.3990459  22.5232544 -37.8034134  24.2144794
 -26.6002331  12.6471815  -8.9814072 -25.7116394  13.0477152  -9.1887007
 -26.7605515  12.8859282  -8.0292721   2.4370677  -2.6772513 -21.5977898
   1.8969948  -2.2004452 -22.2460175   2.3993742  -3.5521977 -22.0562820
  44.4668236 -28.8524837  -1.3985605  44.1423607 -27.9802437  -0.9883423
  43.7602692 -29.3955917  -1.0274770   7.0031037 -26.8349171  41.8489990
   6.7525840 -25.8836021  41.5497169   6.8803649 -27.2939529  40.9821205
   3.5440555  46.9096031  19.5462341   3.7984779  45.9857140  19.6978302
   4.4239006  47.3264809  19.3707657 -18.9321175  -8.4414043  26.9318199
 -18.3473110  -7.7204313  27.0553131 -18.5928955  -9.0864239  27.5965004
   3.3899207 -15.8991823 -17.9929905   4.1640782 -15.3843632 -17.8208027
   2.6452763 -15.2407961 -17.8786354 -17.8572483   2.2964475  24.6620026
 -17.9905224   3.1589251  24.2524338 -16.9373856   2.1833854  24.7562294
   1.9434637  -8.6951590 -41.6707382   2.7212446  -8.8970995 -42.2280579
   1.3032676  -9.3956137 -41.9714928  -1.6694679  -1.8726857  29.5268173
  -1.8203521  -2.5373006  30.1830330  -1.2506584  -2.3883941  28.8102779
  13.3595095  27.0092373   4.6463866  13.4861469  26.0990467   4.9695935
  13.8515472  26.9230347   3.7526677 -33.5036125  16.3012314  10.1405096
 -32.8693390  16.9620018  10.5446444 -33.0454712  16.1390171   9.3071871
 -19.5263023  21.3467426 -23.6546764 -20.1558456  21.5474243 -22.9170132
 -19.5622520  22.1218204 -24.1853600 -25.4754829  -1.5942392  18.7533627
 -24.9986324  -1.8167446  17.9274311 -25.0073967  -0.7145719  18.9139099
  17.3998604 -20.1833382 -24.0848694  17.0753651 -20.7811337 -23.3422680
  17.8296871 -20.8606091 -24.6583004 -32.9290161  -0.9549496  37.6436195
 -32.9554634  -0.9555933  38.5765686 -33.7733040  -1.4881078  37.4216385
   6.6505728 -34.3829079  14.7405872   5.7276130 -34.7864571  14.6012783
   6.3596954 -33.5690422  15.2529402  -4.5053706  -4.6895227  20.9404659
  -5.4533114  -4.6684451  21.2727299  -4.1040697  -4.1963863  21.6591606
  -6.4694581  23.4592400 -23.3665352  -7.4436173  23.7507362 -23.1464100
  -6.3270535  24.0391445 -24.1548767  11.5990801 -21.4348698 -30.7491512
  11.0696487 -21.5572376 -31.5528526  11.5220060 -20.4617939 -30.6917057
 -12.3130455   7.1153350 -53.0221939 -12.9767542   7.5712566 -52.4186783
 -12.8488750   6.2734194 -53.1156235 -42.3987923  12.9626274 -29.5608101
 -42.9388885  13.5887833 -29.0179482 -42.9555054  12.1727228 -29.5020237
   3.8935406 -36.2499580  12.1691084   3.9394073 -35.3134995  11.9068356
   3.0655930 -36.2734718  12.6882238  34.2798386  -7.1073594 -17.1233273
  34.4847603  -6.2514944 -17.5638542  33.4136848  -7.2958856 -17.6166744
   3.9965343 -45.3560867  -8.6363182   3.3160455 -44.7246323  -8.7998590
   3.9738564 -45.5138435  -7.6934681  29.9694901  10.7646999  11.5793610
  30.1533394   9.8094349  11.6173573  30.3107681  11.1118097  12.4304295
 -23.7073135  -8.9694309  30.1475754 -22.7502232  -8.9621315  29.9205875
 -23.6286240  -8.9608936  31.1125240  -9.8738270 -26.8457127  22.5900116
  -9.0079870 -26.6975555  22.9669514 -10.5067797 -26.6175251  23.3424168
  13.7963781   9.0740099  20.6960926  14.3696785   8.2681522  20.8922958
  14.5289516   9.6949224  20.4977398   4.2533650  38.7231331  -0.9061844
   3.8546233  39.5998039  -0.7033958   3.7917628  38.5380898  -1.7398185
  -3.7755687  33.1068535  14.9825182  -3.7319493  33.9800415  15.5237341
  -2.7931337  33.0765686  14.7385988 -35.1119843  15.9172955  -0.7093497
 -34.1761665  16.0152435  -0.4587770 -34.9671783  15.8942299  -1.6810619
  12.4851170 -18.1734276 -11.4870634  11.7302694 -17.6559963 -11.0209284
  12.0218039 -18.8270016 -11.9903812  42.9560547   6.0106258  13.1386805
  43.0100861   6.8485742  12.6295509  43.8973045   5.8428354  13.3306408
  25.1136703 -31.6038380 -27.7198029  25.2911301 -31.1568565 -28.5600834
  24.8931751 -30.7935238 -27.1804447   4.9813242   7.9114523  13.7857704
   4.4846940   8.7059889  14.2014103   5.5845757   8.3566170  13.1654100
 -18.3825130  13.0120764 -46.4732132 -18.7478008  12.2232523 -46.0735931
 -18.3356438  12.7973633 -47.4470978 -33.1543655   4.4841413  29.1217213
 -32.3182831   4.2246566  29.5689163 -33.1461334   4.0241475  28.2881470
  -9.2496185 -29.2188244  10.4901886 -10.2234993 -29.0857983  10.2788763
  -9.3414202 -29.7878723  11.2921247 -28.7576675  -9.9783964  28.9701080
 -28.3196163 -10.6632490  29.5427532 -29.7359524 -10.2308340  29.1721840
   3.7681684  22.2556858 -21.6902924   4.1596527  22.1878891 -20.7806339
   3.5098426  23.1638756 -21.6913528  19.6518688   5.8981738  30.4393425
  20.0112495   6.2792044  31.2247448  20.2698345   6.0404558  29.7725525
 -20.5099773  38.2566757 -14.1612005 -20.6820889  37.4621849 -13.6002083
 -21.3693943  38.3227005 -14.6483059 -26.1849537  10.4372730  12.0780287
 -26.4778023   9.5773363  11.7557182 -25.5352516  10.7029629  11.3578148
  -6.3023357  -9.4806166 -21.4640751  -6.5240431  -8.6901655 -20.9693851
  -6.3571963 -10.1643543 -20.7982655  -3.2078977   4.5284734  17.3011837
  -2.4051764   4.9717937  17.7606888  -3.9197752   4.8037620  17.9376087
   7.9842081 -42.6646271  -9.2306728   8.2851505 -41.9329147  -8.6267948
   7.1587243 -42.3292274  -9.5382595 -30.9607449  -3.5583839 -29.5414124
 -31.6823902  -3.7029285 -30.1897793 -31.3143578  -3.9647830 -28.7434158
 -10.1311731 -12.2727919 -20.6027069 -10.8997345 -11.7493210 -20.7686272
  -9.4790602 -11.9188976 -21.2286530  17.1018982  20.0124588  16.2400665
  17.9602051  19.6446495  16.5843449  16.6474895  19.9492359  17.1785088
  -4.4962726  26.1040707  17.4390049  -4.7288928  25.1827526  17.2086239
  -5.3646550  26.4806786  17.5412884  13.8840990  30.1809216  15.5739813
  14.6512537  30.1955070  14.9624386  14.3027287  30.3278885  16.4040279
  12.0673494   1.4140490   4.5943818  12.0155125   0.7678666   3.8387308
  12.8160267   1.0269336   5.1140585  -4.5281267  40.5080185  14.4311972
  -4.5399170  40.7883797  13.5304594  -4.1048946  41.2393341  14.9374285
  16.5640583  32.5775108  -8.0761652  17.3833923  33.0560799  -7.8543282
  15.9374380  33.3351707  -7.9570823 -24.6445618 -12.5893526  14.3129501
 -25.1811905 -13.1105127  13.6625071 -24.4266090 -13.2043724  15.0010376
 -15.4710169 -44.1319313   8.9482746 -16.0749969 -44.8937073   9.1460314
 -15.6523905 -43.5289688   9.6415567   1.6767622 -12.0468693 -26.1294155
   1.6840705 -11.0867376 -26.2938976   1.9231726 -12.0424805 -25.1773567
  37.2521095  25.0659466 -15.6357632  38.1421738  25.2870369 -16.0136032
  36.6464806  25.0151081 -16.3833447  18.1138821  22.3507671  18.3548241
  18.6716156  22.3726978  19.1181145  17.6439743  21.4794617  18.5718651
  19.7468319  39.2954369  13.9884968  20.5197697  39.1338310  14.4863186
  19.0072746  39.1249962  14.6268501  11.8175631  34.6151276  -0.6461047
  11.0069723  35.1419945  -0.7164816  11.6098919  34.0382462   0.1000375
 -17.9359741 -13.8057470 -12.9671383 -17.9688587 -14.8056145 -13.2143717
 -17.3094902 -13.9348993 -12.2232809   0.6136025  32.4789124  13.4194670
   1.4263119  32.3368492  13.9379454  -0.0482132  32.1701317  14.0894985
 -19.9243145  11.9159508  24.7836418 -18.9742107  11.9850931  24.5164986
 -20.3011284  11.9648075  23.8727493  -9.2261038  25.8184910  13.6512880
  -9.5668592  25.3266335  12.8213024  -9.6557169  26.6790543  13.3882198
  12.2350435 -41.3363190 -28.7165318  12.9505711 -40.6879730 -28.7416325
  12.6361694 -42.0096550 -29.3126678 -34.4166489  23.4189014  -5.4861712
 -34.3240242  22.5483723  -5.0611014 -33.7300949  23.4062176  -6.1602640
  38.7691116  12.6025829  -9.0346003  38.9094162  12.1997185  -8.1778002
  39.2788544  13.4372835  -8.9352531 -35.6462860   4.4643168  30.3927345
 -34.8535233   4.4056282  29.7811890 -35.4951515   5.4659834  30.6377735
 -33.7198296  15.6107607  26.9487915 -34.3276939  15.2723608  26.2536659
 -33.9361763  16.5886021  26.8342972  28.7275467 -36.2639961 -25.5797462
  28.6056099 -36.8353577 -26.3443813  29.0518703 -35.4562759 -25.9875851
  -4.0305243 -17.9689960 -12.8641462  -3.8353808 -17.4881420 -12.0949640
  -3.1870096 -17.7173481 -13.4362411  26.4267540   2.0717292   1.1159852
  26.5285702   2.2164145   2.0572677  27.3050613   2.3178494   0.7680686
  -5.3924160 -18.0884838  35.5345421  -5.3433032 -17.1560764  35.1577339
  -5.9317641 -18.4906235  34.8941383  -8.2121677 -14.8701973   0.7458646
  -7.8755827 -14.8111324   1.6641074  -7.5829062 -15.4491425   0.3461902
 -22.3867855  33.3706474 -18.2603302 -21.7593956  32.6471138 -18.0945206
 -22.8452377  32.9995079 -19.0457249  13.8757439  30.8000412 -29.9886932
  13.4806194  31.4697151 -30.5853386  13.2152739  30.7391453 -29.2797680
  29.9073925   6.0171566  20.0673542  29.3518505   5.2581329  19.8011379
  29.3409920   6.3854032  20.7779140  -4.8798003 -48.5506859   1.0930672
  -5.9036870 -48.5837936   1.2145889  -4.9075975 -49.0433846   0.2440900
  32.3509407   4.9330692  19.1333141  32.1437836   4.0104208  18.9130363
  31.9367104   5.0641141  19.9929295  38.7065620  18.9339733  23.9842091
  39.6493187  19.1841507  23.9466248  38.6261330  18.9753780  25.0195312
  19.1683979  41.6266899   1.1027124  19.4564857  41.2916031   0.2022489
  19.9234066  42.2044640   1.3160248  43.9835892  -7.1062322   1.4841950
  44.0003738  -7.7855811   2.1859236  43.5848808  -6.3632946   2.0457819
  20.1043835 -34.9250641  30.0530682  19.8446732 -34.7392578  29.1642036
  19.2629528 -35.1431465  30.4768829  -9.8454657  33.0853882 -20.8590488
 -10.8202677  33.1882820 -20.8062096  -9.5783472  33.7155685 -21.5419674
  30.1133041 -16.9054470 -25.8374519  30.3362465 -15.9489317 -25.6863918
  30.4846516 -17.2961521 -25.0233231 -32.4889603  19.9178352  -5.6971011
 -32.4198647  20.7777691  -6.2441893 -33.0823555  20.2508335  -4.9813714
   0.8996596  13.9054985   9.8344898   1.7580370  13.5082874  10.0695772
   0.4090430  13.0162468   9.7974997 -36.9813461 -11.0583200 -30.2368774
 -36.8427773 -10.7877111 -31.2006092 -37.7503548 -10.4357948 -29.9933605
   6.5676084  36.0554123  -5.4237342   6.0401821  36.8666763  -5.5835338
   7.1645017  36.3521385  -4.7296157  43.3995667  21.7374058   3.5602968
  42.6219597  21.7846241   2.9720213  43.3175316  22.5491924   4.0646257
 -26.7273712 -35.7031517 -17.2550850 -27.0461960 -36.6004181 -16.9275322
 -26.0282001 -36.0008430 -17.8828926   3.8859103  -6.1428194 -16.3590851
   4.8186331  -6.1359735 -16.6713753   3.4879136  -6.5064864 -17.2179871
 -12.0155821   3.5853932  -1.8517916 -12.4361258   4.2438035  -2.5178986
 -11.0881958   3.6071925  -2.2402096   0.4522782 -31.6526031  -9.8717070
  -0.3709394 -31.6159973 -10.3548279   0.3996184 -30.8598976  -9.3142080
 -14.5500059 -44.8375206 -17.0661106 -14.8191500 -44.5254364 -17.9428864
 -15.2078838 -44.2948494 -16.5577660  20.1317940   5.0871553   1.6723963
  20.3871918   5.7743115   2.2913835  19.9457436   4.3568721   2.2770627
 -16.6519661  27.7097664   3.0701346 -17.1726780  27.8988113   2.2480941
 -16.3093414  26.7970066   2.8957779 -16.9428692 -46.5711479 -17.5684986
 -16.1887627 -46.1220016 -17.1524239 -17.5814877 -45.7985840 -17.6095543
  10.2249346  25.5781689  16.4270935  10.8970776  25.9778824  16.9476128
   9.9345961  24.8955727  17.1053257  -0.1758747   2.9815998   8.0523396
  -0.7856233   2.6999776   7.2911530  -0.3228593   2.2604365   8.6743736
 -39.6426888  26.7854156  19.3143730 -40.0493660  27.2242432  20.1108856
 -40.3992043  26.3133240  18.9622192  33.4918251  28.1956425  -6.5366998
  33.4473953  28.9927082  -7.0146332  32.5876541  28.0289860  -6.2351751
  18.8563271 -25.8264103 -36.7460060  18.6358604 -26.1353226 -37.6167030
  19.8392029 -26.0366154 -36.6875992  39.4305191 -14.5975380   4.3999300
  39.6026421 -13.7485237   3.9831989  38.7427979 -14.9382257   3.7505789
 -42.0729637   5.9961300 -32.2420502 -41.5411949   6.7011766 -31.8694134
 -42.5063591   6.4639187 -33.0135269 -39.5023651  26.6960850   7.1519327
 -40.3004799  27.1356564   7.2876711 -38.9058762  27.2661572   7.7299156
   0.2517724 -16.6492348  12.9737320  -0.5843973 -16.4568100  12.4404306
   0.0862458 -17.6231709  13.1166878  20.9235325  31.1578884   6.1518035
  20.2797623  31.1044292   5.4221601  20.6952496  32.0388603   6.5244222
  14.3131943 -41.0107918  18.3926964  14.8768406 -41.0774612  19.2426071
  13.6508293 -40.3553314  18.6935444 -37.2582817   8.4479208  -1.6084622
 -36.4624443   7.9565344  -1.9677666 -36.9256401   8.5056248  -0.6373521
  13.3893347  19.9114723 -29.7403946  13.7811909  20.1590385 -30.5720406
  13.0182247  19.0099010 -29.9845810  -4.5557876  -8.5848875  18.8384953
  -4.6597672  -9.3957453  19.4089279  -3.9545233  -8.0710058  19.4244976
  27.5424252  -0.4830140 -15.9071722  27.8584709  -0.3827672 -16.8415947
  27.6819611  -1.4628661 -15.8291340  11.2239618  12.6266384 -36.3223724
  10.4487743  12.7783384 -36.9480820  11.6129227  11.8141737 -36.7251511
 -20.4863281 -31.2367668 -19.3459930 -20.2047310 -32.1921806 -19.2058544
 -21.4073982 -31.2419548 -19.3747120 -24.7484245  10.3382950  28.1773796
 -24.9069557  10.4347649  27.2257614 -24.5875053   9.4050283  28.2323265
  -2.3711352   5.9140329  49.5423813  -3.1028996   5.3882647  49.0952950
  -1.8586825   6.1820679  48.7109261 -37.4653168  25.1424160  20.5226574
 -38.0781593  25.2941055  19.7734146 -36.6103745  25.4555817  20.1464195
 -31.6237774  24.5374603  19.5945644 -31.3124580  24.2336178  20.4726734
 -32.4165726  23.9979687  19.4925461 -12.8597031  18.1552601  42.0954704
 -12.1937256  18.7070942  42.4878960 -12.3158398  17.2938023  41.9581299
  38.9018593 -13.4981756  -5.5208874  38.1934471 -13.2759809  -4.8761778
  38.9084549 -14.4648361  -5.4601135  27.9136677  15.3452511  27.4345779
  27.0178795  15.5939484  27.2093678  27.9071102  15.5047569  28.3876343
 -26.2252197   4.9694953  -3.0897281 -26.7298431   4.7238083  -3.8672447
 -26.5129929   4.3558316  -2.3970087 -32.7693329  32.8883591  13.2216234
 -31.8898258  33.0610580  13.6734285 -33.3294830  33.0449715  14.1106558
  21.6746540 -11.3870277 -16.1853676  20.9812012 -11.6457405 -15.5406532
  21.2705803 -10.6307001 -16.6249104   7.0428295 -33.0155563 -25.2521114
   7.3913240 -33.7378998 -25.8408699   6.8409204 -32.4140358 -25.9776154
 -40.6318855 -29.1616879  -6.6919866 -40.5858879 -30.1528034  -6.7031693
 -39.9060135 -28.9556599  -7.3013816  17.8773079  -4.6892228  36.9128838
  17.5787716  -4.5110602  37.8170815  18.0457058  -3.7051411  36.6380348
  14.3905144  11.3499346  38.8553238  15.2541971  11.7599258  38.4353218
  14.0206165  11.0178776  38.0079117  32.5918961  -0.8126940  -5.9685950
  32.0057983  -0.6179671  -6.7513738  32.6822395   0.1328043  -5.6082945
  12.8166828   2.4742265  43.2477570  13.7104731   2.2628014  42.9603195
  12.7314224   1.9359796  44.0516167  24.5286865   1.4089272 -22.9381771
  23.8218136   1.9873519 -22.7537861  24.7437954   1.1251370 -21.9882469
 -19.8601017 -33.0429993  -0.0395134 -20.5687504 -33.0491447   0.6741754
 -19.4731503 -32.1767807   0.1304618  10.2495708 -12.9395056  -4.5933084
  10.9171104 -12.8642998  -3.8153670  10.8611393 -12.9198542  -5.3339195
 -13.9310989  21.7623234 -42.8091164 -14.1268272  21.1884518 -43.5757675
 -12.9713898  21.5913448 -42.7219963 -16.1430645  18.2767029  30.0968857
 -17.0739231  18.0409718  30.0926380 -15.9346399  18.3773842  31.1063652
  12.8781404   0.4236723 -26.9145050  12.7464714   1.2800571 -26.4176311
  13.4315557   0.7988139 -27.6835728  15.7289658  -4.1248312 -25.3385277
  15.8048830  -3.8846850 -26.2975082  15.1964302  -3.4100413 -25.0307636
  13.8882875  39.8096924   9.0574284  13.8869658  39.7609901   8.1049442
  13.0791273  39.4000854   9.3664837 -27.6059074 -43.0726662  17.9974537
 -27.7408352 -42.1132889  17.7962151 -27.8549900 -43.1154900  18.9418736
 -18.9169827   5.4335160 -22.9426689 -17.9654427   5.6847568 -23.0731850
 -18.7274227   4.5637736 -22.4384384 -24.4226837 -45.8622208   5.5289230
 -23.8343620 -45.5697136   6.2028117 -24.6806049 -45.0340652   5.0783033
   3.1376677 -10.4946585  -7.3438568   2.4345374 -10.4257030  -8.0195704
   3.2708287  -9.5639219  -7.1498928  11.3345490 -14.2616940  48.1658249
  11.3044777 -15.1690893  47.6992912  10.8938112 -13.7093287  47.5065536
 -31.9333458  14.3114691 -18.8920269 -32.8172340  14.2321987 -18.4963379
 -31.5327206  14.8382206 -18.0849400 -18.4048481 -24.6900063 -24.3004608
 -19.1780338 -25.2275200 -24.5148735 -17.8565235 -24.7828979 -25.1252632
  18.5518494  -8.6213436   4.8659568  18.7120628  -9.3884020   5.4937992
  17.8415699  -9.0682945   4.2865009   3.6660542  35.1678009  24.6221142
   4.3753953  35.7123299  24.1930733   3.0066941  35.0860863  23.9278107
  23.6522312  -1.6331102  36.0468216  24.1275673  -2.2758312  35.4941635
  23.4604836  -0.9018641  35.4085617  28.6645012 -21.9094257 -11.6751051
  28.4456177 -21.2104664 -11.0337238  28.5016804 -21.4283905 -12.5215588
  -2.7907236  30.0731983   3.5417509  -3.6550627  30.2442932   3.9104149
  -2.6331825  30.8896561   3.0208566 -16.1545124   6.3217630  28.4246082
 -16.0221844   6.8020120  27.5574093 -16.0336552   7.0990210  29.0248947
 -35.1117706 -13.8983984   7.3086348 -36.0472107 -14.0646496   7.0028772
 -34.6328087 -14.4394026   6.6766205 -18.5101681 -47.6490326   7.8910613
 -18.3463383 -46.9040108   7.2508821 -17.8357525 -48.2961578   7.6073856
  16.8322144  13.3587856 -27.7515316  17.0002003  12.3991575 -27.6004009
  15.9252462  13.3322258 -28.0620613 -29.6146832  28.2208023  16.5077572
 -29.6807480  28.6786537  17.3665333 -29.6902409  28.9658127  15.9093637
  32.6996231 -28.3682842  -0.7254395  33.3241234 -29.0935402  -0.8285265
  32.7970505 -27.8471279  -1.5353944  -5.4261780   5.7683034  -8.9190969
  -6.0646086   4.9931479  -8.9920177  -5.6738267   6.0550585  -7.9966879
  17.5986843   4.4662433 -28.5592556  17.0241604   3.6607020 -28.5345192
  17.5123901   4.6708059 -29.5302582   2.1267676   5.9901161 -16.4838581
   1.6096637   5.1741328 -16.7589340   3.0344238   5.7064099 -16.7564354
 -29.3597641 -27.2220516  -0.1685328 -29.4002647 -26.5660992  -0.9178117
 -30.2977180 -27.4035187  -0.0402409 -15.2837543   6.7078428  41.2104759
 -14.9417658   6.9428735  40.3094902 -16.2213860   6.6559672  41.0403099
  -2.9002845   2.4698007  43.3672943  -2.9293349   3.2523899  43.9685478
  -2.6418970   1.7575883  44.0095825   3.2470844   5.8000131  13.6125565
   3.8595247   6.5540895  13.7048559   2.7537620   6.0571294  12.8203192
 -21.4026604  22.0837822 -21.7590351 -22.2360210  22.4664650 -22.0034142
 -21.5045414  22.0341740 -20.7797890 -29.6928291  -2.6703329  23.7228165
 -29.7620621  -1.7724234  23.2977390 -29.3624496  -2.3909962  24.6098785
  22.5552292  17.9654865  -0.4655153  23.3442841  17.6261902  -0.0164337
  22.5312901  18.8861141  -0.1201465  10.6326237  11.3272448  22.2186584
  11.0294905  11.9801397  22.9050274  10.6003294  10.5335445  22.8090668
 -30.8492889  -5.3050766  26.1550999 -31.5885353  -6.0062327  26.2620010
 -30.0800781  -5.8647585  26.4727364 -29.7777061  26.5641727  19.1996059
 -30.4720783  25.9492168  19.0698814 -30.0241356  27.4309006  18.8889256
  23.0980301   2.7961524  33.9409142  22.4463520   3.5016515  33.9607391
  23.8894253   3.2798626  34.2643127  41.9680443   2.0270009 -21.3585033
  41.2677422   1.4043903 -21.6256962  42.5830612   1.4330833 -20.9229012
  18.8081398 -19.5850124  -3.8161860  17.9316273 -19.1435966  -3.8661511
  19.3573303 -18.9040012  -4.3491387  -3.2336583 -26.1121559 -34.8469887
  -3.9195156 -26.5980587 -35.3635178  -2.9503658 -26.8572922 -34.2562561
  14.4691935 -15.2044163  47.3757439  14.6891327 -15.5504618  48.3030815
  15.0432825 -15.8802156  46.8677902   9.4916420  46.9952698  15.1340017
   8.7173624  46.9079628  14.5364456   9.8018208  47.8780212  14.8030281
 -32.9066505  20.7216091 -33.6071587 -32.7352905  21.6827869 -33.6297455
 -33.3276176  20.6019897 -32.7482643  36.4360313 -15.1124477  11.0753050
  35.6747322 -15.1671515  11.7287607  36.2030067 -14.2613173  10.5564985
  15.3070364  36.2200737   6.1347899  14.3786564  36.3239212   6.3552346
  15.2675838  36.0847397   5.1692014  17.3121300  27.9341278  10.5171890
  16.7230167  27.6788921  11.2585888  17.6407604  26.9557037  10.4081631
   3.3324630 -11.7515841 -36.9791756   2.7271457 -11.0225000 -36.7140541
   3.0434813 -11.8727798 -37.9020386   4.5143337  43.9899254  -7.8815618
   5.4570427  44.0944595  -8.1037512   4.2550602  44.8845787  -8.1708937
  15.7119856 -36.0535927  -3.6740146  16.1560516 -36.8283730  -4.0476675
  15.2230959 -35.7467651  -4.4995046  29.5824223  16.4625397  -9.9932785
  28.9305210  16.0179462  -9.5085144  29.5460072  16.0261097 -10.8281794
  11.0871067 -30.9827614   5.3565116  11.4692564 -31.6114025   6.0062032
  10.1378994 -31.2074471   5.4258380 -32.1343575  -4.1294589  -0.7788447
 -32.3808594  -4.2296143   0.1790808 -32.6949081  -4.8112674  -1.2443030
 -20.6367073  30.6191368  -0.4824973 -21.5554466  30.4698925  -0.7599975
 -20.7361965  30.9870129   0.3867608   6.1331844 -25.7398052   7.3733392
   6.6092863 -26.5228710   7.6721454   6.1404891 -25.8497810   6.4320035
 -27.8893051  -8.3232708 -33.8500900 -27.9119797  -7.3638663 -34.0528069
 -28.8497295  -8.5336828 -33.9700127 -33.2375679 -24.7340050  26.5556774
 -32.9459877 -23.8497906  26.7327747 -33.5676231 -24.6585407  25.6134014
 -18.3251991 -16.3950214 -34.5188828 -18.2589684 -16.8290272 -33.6388283
 -18.5918007 -17.2126560 -35.0228500   8.8222141 -24.1516151   5.5623436
   9.6100521 -24.5914707   5.1762195   8.1251240 -24.4060211   4.9682651
   9.4299469  20.4624863  -9.0350657  10.1514626  20.5328045  -9.6319828
   9.8525143  20.0876064  -8.2169647   2.1331847   4.8572116  16.5994549
   1.5414945   5.5614891  16.8680573   2.4759698   5.1962638  15.7547750
   6.3733168  13.1574850 -16.2581596   6.6037793  12.4166107 -15.5813551
   5.3837657  13.0366898 -16.2012939  -3.4317756 -32.8891182  20.3014889
  -4.2873988 -32.7304230  20.7149830  -2.8292785 -32.6401901  21.0159664
  -6.5513816 -21.7127419 -11.0308781  -5.8099713 -22.3664570 -11.1036654
  -6.2352295 -21.0167255 -11.6334658 -39.2701454  -0.0087767   3.5215390
 -38.5162544   0.4950322   3.1116908 -39.6496964   0.7048693   4.0863409
  41.7970428  14.5752792  -6.1004281  42.2795563  14.2747002  -5.3149281
  41.0979843  15.1074924  -5.7485738  21.1642227   5.9639525  40.6133194
  21.9689198   6.2362833  40.1536636  21.5266781   5.5014892  41.4071846
  16.9531288  -8.1847219 -31.5647469  16.2688198  -7.7441678 -30.9787369
  17.6273823  -8.4121962 -30.8601265 -40.4232903 -33.3224144  16.3795338
 -40.7843437 -33.8518066  15.6294441 -40.0086327 -32.6502304  15.8372707
  -0.4676099   8.4928808 -20.9413395   0.3537889   8.8720264 -20.5960312
  -0.7214699   7.9471884 -20.1528015  43.3497658 -17.5492668 -10.6259861
  42.9816551 -17.5016727 -11.5615740  42.5223045 -18.0788841 -10.2540112
  38.7588005  -4.3308353 -10.5410519  38.6964531  -5.0132608 -11.2445841
  39.1281700  -3.6099222 -10.9898624  21.2600327  19.1470280  18.7635269
  21.9847641  19.2701550  18.1038094  21.6896839  19.1159554  19.6009731
  10.5874643   4.9013510 -18.8971233  10.7385263   5.8393621 -18.6487656
  11.4941759   4.6730065 -19.2098160   9.6604176  26.1142159  -9.4949875
   9.7007608  25.8890076  -8.5211172   8.7198687  26.1221428  -9.6482601
 -11.5864391   8.2271338 -31.1292534 -12.5486526   8.2301931 -31.0940628
 -11.4014597   8.6056023 -31.9905949  22.4877148   6.3768325  -1.2166927
  22.3220387   6.8601537  -0.4070959  23.2370014   6.8363738  -1.5707878
  13.2651091  22.9932365  34.6201553  13.5088205  23.3708744  35.4899025
  12.9106865  23.7721214  34.1565895 -13.7342291  35.8481216 -27.9826145
 -12.9413919  36.2572060 -27.6046410 -14.1977224  35.5818787 -27.1453228
 -43.8635635 -10.5077305  17.4525394 -43.4478683 -10.2857943  18.2803593
 -43.4118042 -11.4026327  17.3466358  15.0256758  47.4497643  16.7192230
  14.5514479  46.5715599  16.7456799  15.2830124  47.5777969  17.6716290
  22.3379269   6.6731300  15.8597736  21.5774269   7.0249391  15.3721027
  22.2146473   7.2899637  16.6111660  23.0524044 -20.5749817   5.8673348
  23.7243233 -20.7092628   5.1649489  22.8131027 -19.6389084   5.5637984
  21.2461452   6.5763178   8.5894127  20.6243668   6.8482709   9.2544346
  21.2938652   7.4317164   8.0693035 -24.1810074 -31.2278423  -9.4180698
 -24.2358894 -31.7431736  -8.5902319 -24.3661327 -31.8681507 -10.0930643
 -40.7545776  17.1240425 -19.0108795 -40.2093620  16.6221714 -19.6233082
 -40.6066589  16.6613712 -18.1640072  13.4249601  23.9764557 -11.2754526
  12.4980917  23.7163506 -11.2783251  13.3843918  24.8750210 -11.7394276
 -27.2594433 -25.5966835 -15.7444916 -27.2108765 -25.8683949 -14.7970371
 -28.0702553 -25.9563084 -16.0429707  -5.8400407  33.8742676 -29.4124813
  -5.5032854  33.9350243 -28.5641861  -6.8450413  33.8914642 -29.2593899
 -34.5689354 -31.9169426 -21.7343178 -35.4266891 -31.5165253 -21.3604507
 -34.0394821 -31.1013680 -21.6868439 -42.9733543 -10.1674423  -8.6126938
 -43.1201706 -10.8659649  -9.3131418 -42.1150627  -9.8164558  -8.9545078
 -10.3504534 -11.6044416  28.2324581 -11.2442646 -11.9680243  28.1734142
 -10.3209114 -11.4873409  29.2363644  -1.7464325  27.3076477  39.0469017
  -2.5904434  26.8803635  38.9783783  -2.0004172  28.2432346  39.1097221
   1.5580257 -14.7937126  45.2531548   0.7962264 -14.2092867  45.0294380
   1.2026922 -15.6086292  44.8159409 -34.7023163  23.3017406  -0.7081802
 -35.4530678  23.8758392  -0.4419318 -34.3616524  23.0030899   0.1673149
   2.5918484   5.5674911 -40.5968246   1.7805803   5.3144522 -40.0915222
   2.9885151   6.2085743 -39.9497528  43.6543961  13.9149637  22.7830849
  44.2071762  13.1616335  23.1201420  44.2857437  14.3632164  22.1511574
   4.2453098 -26.9643040  -0.5110486   5.2077560 -26.9757786  -0.7871000
   3.9178896 -27.6790791  -1.1192821  -7.6582971   4.7704825  40.1010971
  -6.9948006   4.4898415  40.7305870  -7.4628129   5.6809020  39.9728279
  25.5953178 -15.4473181 -35.1936913  24.9965935 -14.9286966 -34.6174850
  26.5044689 -15.2477703 -34.7075272 -12.7372589 -13.3597851   6.3745651
 -11.9978781 -14.0791540   6.2026010 -12.9394093 -13.5795317   7.3246241
  -7.0925026  -5.7138462   4.0981121  -7.0532694  -6.4331479   4.7938886
  -8.0357656  -5.6903152   3.9388530  36.7800179  20.5955677  10.0830011
  37.3089638  20.0169296   9.4855795  35.9585800  20.7355003   9.6217823
  25.9230385   6.9690638 -21.4292507  25.9098606   6.4630380 -22.3252087
  25.0342140   6.7833738 -21.1194096 -17.4037590  14.6694908 -32.3302956
 -16.6161938  14.8677740 -32.8898697 -17.1754704  14.7852001 -31.4102612
   9.6409025 -34.8789597 -37.6274834   9.2661877 -34.7314835 -38.5318527
   9.8608332 -33.9036751 -37.4433861 -37.8410225 -15.5628233 -13.6441994
 -37.3174667 -16.3231354 -13.4256706 -38.0226974 -15.6755018 -14.6449671
  25.4945145  14.2891388  20.5510540  25.3428993  15.1766357  20.2464619
  25.8116589  14.4922314  21.4596233  -1.4081775 -20.3987617 -34.5004005
  -1.5038568 -20.9016323 -35.4084625  -0.3966197 -20.4028149 -34.4813347
   5.8318028  -2.2866528 -47.0607758   6.4129586  -2.2468297 -47.8739662
   6.3892775  -2.7351081 -46.4337234   3.7113347  13.9252939  19.8636284
   4.0619016  13.1595764  19.3367748   3.4801643  14.5111570  19.1293030
   0.8498235 -29.4929886 -19.4817543  -0.0819115 -29.5470066 -19.2662773
   0.9189866 -30.0932827 -20.2411232   0.3116521  12.7371979  13.2345009
   1.2086786  12.4591722  12.8714571   0.5389839  13.4993210  13.7922421
   3.1540327  -4.6328001  24.1672668   3.9785340  -4.9770379  24.6075783
   2.8742952  -5.5300980  23.8048477  37.9599762  18.9163284   8.0653639
  37.4745331  18.0978336   8.2607718  38.0457993  18.7760620   7.0667911
 -32.5656586   7.2640204  21.2260895 -32.8597488   6.4921350  21.7918301
 -33.3732758   7.7824373  21.2522717  31.3851223 -14.1134901  35.8415680
  31.3881512 -15.0941534  35.7138367  31.4340019 -13.8165026  34.8872757
 -29.6916027 -26.2563190   4.0458064 -29.4200211 -26.6705341   4.8955197
 -30.6550426 -26.4694424   4.0595264  16.9373398 -41.1824913  -6.8819342
  16.4913464 -40.8487015  -6.0978470  16.6991940 -40.5283279  -7.6063962
 -35.4630241 -14.0098438  20.4698982 -35.0596046 -14.1836090  21.3828659
 -35.3014832 -13.0379047  20.4293594   4.3371582  40.1354485 -25.3786564
   4.7563362  39.7983208 -24.5800877   4.4709172  41.1054459 -25.2341328
   5.2763405   8.6551342  44.1323090   5.5566039   7.9101748  43.6908340
   5.7740397   9.4284601  43.7034607 -16.3103371  17.7831078  18.3190556
 -16.5464001  17.1905174  19.0300751 -17.0797462  17.6477737  17.7243023
 -18.6655083  31.3214130  13.8065977 -19.2678394  30.5772858  13.5100956
 -18.8993740  31.2289791  14.8330936  15.0339766 -40.1579285 -29.0114956
  14.8717661 -40.9679718 -29.5152702  15.0671062 -39.4639320 -29.6059284
 -11.3909664   3.6357129 -39.8311462 -12.1298199   3.2388492 -39.3584251
 -11.7931719   3.8839114 -40.6974220  26.4730587  34.7249718  21.9845009
  26.8879967  34.1056290  21.2918224  26.6037045  35.5791359  21.4407253
 -10.2862120  -1.6497114 -46.3937607 -10.4950066  -0.7467552 -46.5953903
  -9.9603214  -1.6147794 -45.5214462 -20.6832066  35.9921951   9.7668772
 -21.2757549  35.2688065   9.4535503 -21.2617035  36.2321854  10.5413513
   1.7087699 -37.9442978  -5.3753357   0.9745908 -37.4032898  -5.7916427
   1.9362602 -38.6059151  -6.0468078 -23.9313278   6.4262962 -41.9329376
 -24.4607487   7.0524588 -42.4717140 -24.4028893   6.6024628 -41.0415802
 -30.3587608  -5.2742848  29.4445114 -29.7883072  -6.0000067  29.6806450
 -30.9512978  -5.2169757  30.2125988 -26.1404266 -10.5073738  -0.4562091
 -26.1363373 -10.0135145  -1.2943383 -25.9403687  -9.7453899   0.1217118
 -33.2113190  -4.5548525 -17.4285336 -32.7378120  -5.0786381 -18.0755749
 -34.0267639  -4.3271503 -17.9188690   5.2820005 -21.3043251  30.5306015
   4.7040639 -21.5437489  29.7943840   5.8258123 -22.1645546  30.5133648
  15.4861422   6.7004085  21.3319073  15.7757902   5.7593355  21.0732727
  16.0318050   7.1160526  20.5681286  10.7312288  12.5983295  35.7184639
   9.8092070  12.2333794  35.7147102  10.7047367  13.0170364  34.7984734
 -32.3257446  -8.9782515  28.1926079 -32.1064644  -8.4377947  28.9433098
 -32.0088348  -9.8463116  28.4784374  21.0857143  27.7914944  -1.6988188
  20.5358391  27.1831226  -2.2382891  20.7119160  27.6539555  -0.8460741
 -31.7950935  -7.5826349 -10.0557518 -32.2788162  -7.2902665  -9.2800465
 -31.0787983  -8.0958948  -9.7123642  29.7326603 -16.8399162   9.4295988
  29.6678410 -16.3015900  10.2764473  29.8848858 -17.7440033   9.8580151
  -3.3323989 -27.8010769  26.4250050  -3.6062057 -28.2391376  25.5918636
  -2.6877096 -28.4689732  26.7524471  -7.6204901   4.2357354 -39.1638298
  -8.0821552   3.5061190 -39.5894356  -6.6833467   3.9271705 -39.2358360
 -23.6366825  15.4205189  11.8165102 -24.0569191  14.5727406  12.1636047
 -22.7138176  15.2083969  12.0577946 -34.2649231 -10.4684563  17.9939270
 -34.9347496 -10.2289534  17.3004856 -34.0617599 -11.4120674  17.6849499
  -9.5782633  -0.2900114 -50.1966591  -8.9676609  -0.8225865 -50.7049980
  -9.1047888   0.5190725 -49.9562569 -21.0061626 -19.4134159   6.7921519
 -20.9540730 -18.7271557   6.0590053 -21.5035152 -18.9309540   7.4907589
  -9.4595394 -15.1446285 -22.8029461 -10.3413849 -15.4831657 -22.7993755
  -9.6103878 -14.1956739 -23.0436916 -35.7807961   6.1270928   9.1865740
 -35.7172966   6.2867122  10.1487398 -35.1771202   6.8479810   8.8492718
  -5.7464404 -35.3785629  -9.5581646  -4.9070158 -35.2302666  -9.9655161
  -5.8264947 -34.6821327  -8.8983507 -31.4272747  35.4446983 -19.1560078
 -31.4070587  36.3806343 -19.0334816 -32.3801117  35.2551765 -19.1486874
 -36.4821854  21.5430431   7.0865941 -35.9671402  22.3212090   7.2436466
 -37.3059540  21.9365654   6.7221918  -4.1660185 -47.7691154  -3.2218111
  -4.8505349 -47.3499107  -3.7156851  -4.7267232 -48.1431694  -2.4980781
 -12.9011059 -25.3765526 -10.9305115 -13.3178482 -25.0607033 -11.7568560
 -12.4012842 -24.5570202 -10.7031937  16.8446217 -30.0631981 -18.6226330
  17.3079090 -30.8281727 -18.9782009  15.8698397 -30.3928547 -18.7169762
 -14.1625261 -22.4141827  17.5998878 -13.3792191 -23.0467644  17.6869812
 -13.6596928 -21.6925106  17.1160660 -21.0675049 -37.3674469 -15.5152369
 -20.5713005 -36.7445564 -16.0464764 -21.8267021 -37.5572433 -16.1220665
 -28.4484177  24.9129505  -6.4356160 -28.9938107  25.7173615  -6.4217205
 -28.9974918  24.2406120  -6.0985255 -14.0302362 -34.7570763  11.7142982
 -14.3111067 -35.6149673  12.1699839 -14.6033678 -34.0895920  12.1150160
   8.1173887  42.6099815  20.0693150   8.5037975  43.3346252  19.6385078
   7.3119068  42.4332275  19.4918709 -41.6925697  30.2285290  -8.1233006
 -42.5230103  30.3944263  -8.6106262 -41.5402603  29.3143826  -8.2200356
  19.4908333 -33.0595398 -17.7521114  18.5080032 -33.0377121 -17.6511459
  19.7058945 -33.8933334 -17.2671986  11.2589455 -20.0360680  43.9673615
  11.9158754 -19.2288456  43.8751793  11.2052011 -20.0061531  44.9921417
  19.3277740  -6.5654564 -47.6031227  20.2767677  -6.2389932 -47.6949387
  19.3332081  -6.8060932 -46.6555824  14.4207945 -27.7780342  40.8777428
  14.3257656 -26.8727970  41.1330910  13.7135963 -28.2494869  41.3689194
  11.2290592 -20.2640972 -41.5770950  11.2440262 -19.7911758 -42.4797859
  12.1717243 -20.3521233 -41.5111809  14.2778549  -5.8606925   3.8649380
  13.4980297  -5.2409730   3.8227296  14.5867081  -5.7893920   2.8949721
 -44.5001106  24.1164780   5.4785662 -43.6262894  23.7762890   5.1649213
 -44.2459297  24.4970493   6.3306985  25.7148247  -8.2125378 -25.3359489
  26.6571255  -8.5704012 -25.2159939  25.2824154  -8.8558331 -25.8942013
  31.8680687  -4.4408226  -0.2305153  32.6968155  -4.7097669  -0.6542357
  31.1862106  -5.0117130  -0.6831520 -37.5796127   9.0998821  35.3734932
 -36.7859383   9.1650448  35.9435921 -37.3108368   8.5414705  34.6896629
  28.2342796 -12.8385067  -1.5830010  27.8199463 -13.5208197  -2.1157639
  27.7368851 -12.8990974  -0.7399542   2.3105240 -21.6480064  13.1522837
   2.1135361 -21.0666351  12.3849945   3.1323977 -22.0658932  12.6839294
  38.5107346 -32.2919807   7.2781987  37.9535789 -31.9556065   7.9643025
  39.2046661 -32.7885361   7.8063502 -17.5583534  -5.2998052 -17.0753574
 -17.2760735  -6.2092814 -17.1577339 -17.7248249  -5.0260777 -18.0178623
 -20.8853493 -29.6458874  15.4395704 -20.3946095 -29.1566563  16.1203976
 -20.2285843 -29.6119957  14.7219305 -38.3967476  26.2750740  10.0725727
 -38.0338020  27.1376534   9.9457960 -38.3151817  26.0855198  10.9984589
  17.2668953 -24.4849739  26.3152351  16.2902584 -24.6017818  26.3313160
  17.3298111 -23.5455265  26.0744286  11.6155958  10.1074152   6.6245646
  11.6915369  10.6530142   7.4660025  11.8356676   9.2795172   7.0616050
  25.2323666  18.0560207   5.8544354  25.7062054  18.7334366   6.4167581
  25.9558582  17.4348793   5.6938634  -1.3234224 -34.5414886   1.0696422
  -0.9924822 -35.1493111   0.2927216  -0.6600274 -33.8050003   0.9383130
 -10.4606543  25.6428051  42.0604019 -10.2465858  24.6855030  42.1350784
  -9.6669827  25.9302139  41.5736771  39.1233330  18.9027882  -8.9770269
  38.7895432  19.6738472  -8.4475031  38.6004906  19.0586205  -9.7748766
 -27.9865322  16.9192467  22.6628036 -27.3657932  17.6911278  22.5524292
 -27.6004429  16.4529819  23.4474125 -37.0160904   0.6445642 -13.0142250
 -37.9106483   0.9119233 -12.6209745 -36.8458786  -0.2284261 -12.5449352
  -5.3138866   2.7381427  47.3755302  -6.0191669   2.8482070  48.0750656
  -4.7404904   3.4619741  47.8192139  26.5616360 -17.9136829 -19.8360634
  27.0173435 -18.7243423 -19.8786793  26.5477982 -17.7022362 -20.8338852
  25.8521690   5.1108599  13.8415699  25.1260986   4.4608479  13.9452229
  25.3670177   5.8426332  13.4486294 -15.8524351  34.2815170 -32.7487068
 -14.9075222  34.1560020 -32.5976677 -15.9567051  33.7774353 -33.6065025
 -23.9095764 -10.8176880  32.7303886 -24.7546234 -11.2368364  32.4622726
 -24.2464809 -10.0900412  33.2689552   8.1071920  14.2925091  42.2087135
   7.8907957  14.9160814  42.9522591   7.8491082  14.9013453  41.5116959
  25.7236881 -28.7468815 -23.4619522  26.6134720 -28.3955364 -23.5397053
  25.3954735 -28.3396301 -22.6471825  12.3719864  29.4424706  -9.6346445
  12.3709993  28.4982338  -9.3252239  11.3608875  29.5093689  -9.6417255
   1.0030532 -37.2155037  26.5215435   0.1939805 -36.7036819  26.7828197
   0.7280675 -38.1174965  26.7524643  -6.0219111 -12.6471386  38.1211205
  -6.4323525 -12.6567354  38.9556007  -6.2945747 -13.5278940  37.7097893
 -25.4765453  -4.2715793  20.4681263 -25.6507740  -3.5214705  19.8259754
 -24.7295399  -3.8490314  20.9325695   9.6723833  45.2530899  12.5662279
   9.0655422  44.4784660  12.3488140   8.9605761  45.9276009  12.5868998
  42.8591461  -2.3656087  25.2786903  43.1116867  -2.5235488  24.3370075
  42.1265907  -1.7165396  25.1135178  21.3122768  35.0957108  18.8745918
  21.1309261  35.3180542  17.9485855  21.0749969  35.9472961  19.3406963
   0.0361630  19.4731941  38.3356323   0.4918828  19.2673302  39.2047577
  -0.0130655  18.5183659  37.9933891  -2.2037196 -38.6583023  25.0171051
  -2.1961524 -39.1870003  24.1574593  -3.1211562 -38.4983673  25.1475811
  16.0063972 -12.1367035  35.4128532  17.0109386 -12.2032261  35.3409042
  15.7917347 -12.4982748  34.5629807   6.9955692  16.7469444  15.4365406
   7.3889394  17.4145813  16.0138264   6.8604279  15.9472570  15.9970407
  -5.9633756  27.2019405  -8.7568264  -5.4269447  26.4811440  -9.0929937
  -5.4908924  27.9863491  -9.1833096  -8.9617691 -48.6095772 -13.3485699
  -8.9086924 -49.3615837 -12.6670885  -9.9360008 -48.6025848 -13.4624586
  14.2318850 -24.8640347  41.5452156  13.4436245 -24.6920185  42.1588669
  14.4150534 -23.9380341  41.4115410  28.7026367  -8.9171104 -19.1296883
  28.9647751  -8.0774984 -18.6282387  29.0575066  -9.5622282 -18.4284687
  -6.9675040  25.4457912  26.2447510  -6.0628014  25.6331615  26.1133480
  -7.3865609  26.3195610  26.1483727 -16.7021122  -5.9359207 -37.0559044
 -17.0226440  -5.0164099 -37.0124588 -15.8072672  -5.8181038 -36.7128868
  -8.9701881 -20.5512905  -8.8443165  -9.5264740 -20.8851318  -8.1170464
  -8.0672626 -20.9454765  -8.5559025 -40.6510735  16.7567444   5.8223734
 -39.7803001  16.9892159   5.6238689 -41.1976051  17.0695744   5.0752859
 -19.4032707 -18.4948025 -27.8769894 -19.8502960 -18.6219387 -26.9875355
 -20.1291180 -17.9425812 -28.2864056  14.2640686  20.4408245  -4.1871395
  13.6019669  21.0567055  -4.4943385  14.9997597  20.5808048  -4.8201332
 -13.0036182  -0.3559276  33.5516396 -13.5228930  -0.7669551  34.2935638
 -13.6922312  -0.3648689  32.8505974 -42.4403419  10.0109625 -24.8111877
 -43.1664467   9.4190283 -25.0849762 -42.5312843   9.9718609 -23.8339615
  12.2902279   0.5443429  30.7166195  13.0690727   0.1405857  30.3014545
  12.6596146   1.3606528  31.0841370  17.8366108  25.6746311 -10.8468437
  18.1154613  26.6335487 -10.7175188  17.0194817  25.6950207 -10.2883749
  18.7666149 -12.0658989  25.2425690  19.1324635 -11.4635830  25.8926105
  19.3941631 -12.0351667  24.5200386  -2.5747426 -47.7699013   5.7419028
  -2.9536359 -47.3657036   4.8989186  -2.8785112 -47.0694809   6.4190850
 -16.4061642   3.1160314 -38.2523155 -16.6506405   2.6861467 -37.4328308
 -17.1337814   2.7778594 -38.8389893  20.4385185  32.0379868  16.2339783
  21.3916435  32.2059555  16.0483379  20.2567749  31.3908730  15.5506105
 -31.7937946 -17.2284508 -27.2094841 -32.4273300 -17.7831059 -27.6799984
 -31.9622135 -17.4385910 -26.3014965  41.4743309  19.2000256 -10.5098038
  40.8062592  19.0361595  -9.7564850  40.9501572  19.7682724 -11.0720129
  32.1875916  19.6046677 -29.6103287  32.3730202  18.7770653 -30.0813179
  31.7141666  19.1246452 -28.8801498   3.8641648   3.6287668  29.0481853
   4.2186837   3.1373136  29.7733250   2.9122548   3.4520359  29.0838013
  11.8327446  22.3859482  16.8248749  12.0961924  23.2931881  16.5331135
  11.0218134  22.6422367  17.3452854 -43.3294907   5.5324607  13.2709665
 -42.8872910   4.7014108  13.6094894 -42.7775269   5.6707444  12.4584560
  -9.2668324 -17.8989143 -35.8131294  -9.8216686 -18.6354027 -35.9909248
  -8.9570656 -17.6543827 -36.7358551  31.5083961   1.3337066 -17.3349934
  31.0557861   1.9161866 -17.9319420  31.1709042   0.4732933 -17.5034161
  39.4216080 -32.9361649 -19.5650921  38.4553680 -33.1294441 -19.7769947
  39.6947746 -32.6636581 -20.4470272 -24.8475647  34.1925697  24.3963451
 -24.1288147  34.8875389  24.2796612 -24.3339176  33.4534111  23.9446239
   0.4071063 -12.0877934  40.8073959  -0.2790362 -11.4552307  40.6448975
   0.2007787 -12.7606983  40.0767517 -23.6812973  -7.5258884   7.1922288
 -23.0051575  -7.4571371   6.4923673 -23.2256413  -7.0580754   7.9518528
 -37.5557480  -1.9451637 -16.0536232 -37.1974945  -2.2929747 -15.2290316
 -38.4805260  -1.7593153 -15.8083973 -33.8229408 -16.3220062 -21.6556282
 -34.1357117 -15.4326687 -21.7375546 -32.9064522 -16.1605721 -21.2414494
 -42.5226288  -5.7544699 -22.5735836 -41.5634918  -5.8260403 -22.3551292
 -42.6952171  -6.6736341 -22.8207054   0.4849302  11.5520172  -5.2641239
   0.4098961  12.1386347  -6.0099702  -0.2330023  11.8700151  -4.6621847
 -15.1759329  18.1704731  -6.7562928 -15.9093924  18.0634899  -7.4627132
 -14.4505005  18.2489090  -7.4054012  24.6551533  -8.7366638   0.6724573
  24.4269047  -7.9768262   1.1473572  23.8307323  -9.2268209   0.6467415
 -30.6413269  21.5223274  13.6737461 -30.8248291  21.7510796  12.7536173
 -29.6989765  21.6441917  13.8609247  32.5654793  38.3205872  17.1452408
  33.3605232  38.7605896  16.7619228  31.9875774  39.0711632  17.4212475
 -12.5798063  -5.3156934 -24.8650589 -11.9113712  -4.6363144 -24.9860115
 -12.1429319  -6.1353278 -25.1157703  39.4418716 -16.4417152 -13.9172764
  38.9841576 -15.8971176 -14.6441689  38.6939011 -16.3901825 -13.2642717
  23.5766945  31.7854939   6.6317172  22.7145958  31.3939114   6.4301639
  23.6116447  31.7255306   7.6275005  20.5548420  -3.8382394  -4.3442769
  21.4043808  -4.1909189  -4.0687490  19.9628773  -4.2342553  -3.6807678
 -32.9469452  12.6604795 -20.9208317 -32.5913696  13.3288984 -20.2662601
 -33.8870735  12.8975344 -20.8679562  -5.3125210 -17.9660320  41.4643593
  -6.0848613 -18.5352535  41.2730560  -4.7878637 -18.2239094  40.6850319
 -20.1052990  24.7694874 -29.0071602 -20.0486107  25.1499062 -28.1301956
 -19.8324451  25.5501671 -29.5908604 -42.7193146 -26.4053783 -13.2504654
 -42.3252563 -27.0824432 -12.6361322 -42.3908195 -25.6305466 -12.6591816
  -4.5529084 -19.4182568 -37.3443069  -4.4152670 -20.1919479 -36.8626518
  -4.0060482 -18.7513218 -36.7973709  36.0290718   4.6288204   9.6603527
  35.9392929   5.4732780   9.1247396  35.1328201   4.2491064   9.4725256
  23.0667782  15.3134518 -33.7890511  23.1578388  14.7639389 -33.0443153
  22.3449650  15.9239693 -33.4795036  23.6308880 -37.0187645   5.3076916
  23.9507008 -36.4242516   4.5548472  22.6901169 -36.7759705   5.3218422
   0.5631431  -5.8909893  29.4670982  -0.1738412  -6.0920196  28.8612366
   0.8829314  -6.8018017  29.6788731  -7.1695318  -8.9325027  29.2461433
  -6.4553185  -9.3126621  28.6519279  -6.9957113  -9.5045033  30.0460587
  30.9661064  24.0012665  17.8084335  30.1158218  24.3950024  17.6961040
  31.3469467  24.0630093  16.9159260  17.6157818 -33.8465462  32.8670273
  16.7011299 -33.8264923  33.2972717  17.3800564 -34.2304649  31.9922981
   7.8656044  33.6493607   7.6254644   8.0912428  33.5515442   8.5606813
   7.0133281  33.1509666   7.6545396  21.2397060  -2.2831640 -32.3203316
  20.6893711  -2.2893794 -33.0998383  21.4076366  -3.2398894 -32.0956879
  15.1953993   7.3805490  36.2956200  14.4177027   6.9687920  35.9029121
  15.2779684   8.2287073  35.8696022 -13.5835657 -31.6970711  26.6791134
 -14.4883366 -31.3281689  26.3671474 -13.8847771 -32.1193810  27.5337791
 -22.7088947  -6.4138670   9.3803587 -22.1320972  -5.6023664   9.5209169
 -21.9503193  -7.0584531   9.6700258 -32.6546707  16.4863739  -9.7091465
 -33.1482391  15.9689856  -9.0171289 -32.3395424  17.2142544  -9.2156429
  -1.6106465   2.4189613 -37.2045746  -1.2469146   2.5588183 -38.0711327
  -1.9094502   1.5531926 -37.1184425  41.2689629   4.9345584  27.4386406
  40.5264778   5.0316911  28.0529747  41.3023262   5.8177209  26.9821472
 -16.6507740 -20.8528461 -14.2209444 -15.6718607 -21.0989990 -14.0941658
 -16.6279736 -20.1679173 -13.4555492  10.0508842   8.7520418  -5.4554601
  10.6042910   9.3562479  -4.8642101  10.6200924   8.6930456  -6.2157431
  42.5535812   6.5616112 -32.7811623  42.3656349   6.8348041 -33.7123299
  42.5851059   5.6065497 -32.8603172  24.9094582  27.8253498 -27.9424648
  25.2449284  28.7177238 -28.0022068  25.4787426  27.4186668 -27.2485275
  24.2000732 -24.9503269 -18.4384880  24.7476120 -25.7569084 -18.3651371
  24.1706963 -24.6013031 -17.5210018   8.9414148  49.5041618  10.6145344
   8.1707182  49.9255295  10.1103163   9.6350632  50.0146370  10.0817862
 -14.2720499  -8.2979784   2.9188571 -13.8890123  -8.3307514   2.0420446
 -15.1156330  -8.8032637   2.7987959 -10.8406582  -0.2242846  46.2959518
 -11.4170494  -0.6259811  45.6611252 -11.1896086  -0.4381738  47.1352692
 -14.2214317 -49.6601906  -7.8259320 -13.8860035 -50.1662483  -7.0519800
 -14.5432901 -48.8534813  -7.3742023 -11.8064508 -11.1087446 -11.3821697
 -12.5444994 -10.6318398 -10.9189224 -11.0512934 -10.8253651 -10.8352013
 -21.0410023 -21.2391872 -29.1032715 -20.6736298 -22.0610523 -28.7825928
 -20.2737484 -20.6547661 -28.9227448  41.1131935 -12.0611649  -4.5873866
  40.2145882 -12.1914320  -4.9860435  41.4140053 -12.9499102  -4.4211345
  -1.1475817  21.1948376  -4.2237391  -1.7248241  21.6080551  -4.8833756
  -0.3929029  21.8215218  -4.2777987 -30.3537617 -22.2002926  25.4710045
 -30.1000004 -23.0666466  25.7898674 -29.5478306 -21.6855621  25.6494751
  13.2233267  11.7092094 -24.4032021  13.9084702  11.2971344 -24.9724483
  12.7043676  10.9752169 -24.1813354  -2.9768100  -2.7971315   9.3239708
  -2.0224113  -2.5995948   9.2608528  -2.9425471  -3.6036789   9.8930359
  -1.0255246  17.6008015  -1.8143783  -1.8734630  17.2158432  -1.7362927
  -0.9612454  18.2054787  -1.0257633  33.4963570 -12.2206392   5.1511860
  32.7152824 -12.7214890   5.5056624  34.1767578 -12.5662279   5.7580180
  11.8044996 -36.0899925 -30.5118542  11.9639044 -36.9228096 -30.0820484
  11.1866512 -36.3885498 -31.2203884  -4.5549741 -43.7784653  21.3148861
  -3.9924724 -43.1445007  20.8182430  -5.0055184 -43.1970253  21.9908352
  26.9323940 -13.0182943  -9.5199213  27.1337872 -12.9732342 -10.5769043
  26.1634979 -13.5159836  -9.5080042 -23.4531860 -20.6444225 -17.5000706
 -23.4881783 -21.6081257 -17.5488338 -22.5647316 -20.5175304 -17.0564651
 -15.4895678 -35.4894905  19.9270401 -14.6333046 -35.6328773  20.3642693
 -15.4583769 -34.5674057  19.7402191 -25.2513733  25.5510769  26.6082420
 -25.6381950  24.7884102  26.2012043 -26.0044327  26.0648975  26.8451843
  26.4204826 -10.6668463 -40.5901718  26.9360600  -9.8802195 -40.8533745
  26.8351307 -10.9174147 -39.7954941  11.7222347  -8.4227619 -24.6305923
  12.1198750  -8.8171177 -25.4609318  12.0324650  -7.5022960 -24.7539158
  23.9742527 -11.3043289  45.2511749  24.9672947 -11.5424461  45.2635841
  23.7348633 -11.4904480  44.3550568  -9.1002769 -40.0572548 -20.6807442
  -9.3738251 -40.7526054 -21.2833900  -8.1207705 -40.2074623 -20.6729889
  14.5517406  12.8359251   2.4425957  14.6018124  13.7483940   2.1359062
  13.9322319  12.5232172   1.7867478  10.9320526  19.1992188   3.0161476
  11.0964308  18.2619019   2.7155344  10.0795374  18.9849453   3.4724116
 -38.5599289   4.5103774   5.7036471 -38.2491188   4.5646100   6.6270113
 -38.5104218   5.4810200   5.4036751 -34.5029831 -25.6086349  -4.5156331
 -35.0381241 -26.0562382  -5.2403874 -33.6525116 -26.0845318  -4.6293654
 -31.0989761 -10.9045439  14.8731327 -31.2890205 -11.4331980  14.0161123
 -30.1767654 -11.0481091  14.9438467  21.7236843   6.0379391  12.3989143
  22.4991207   6.1633325  11.7890244  21.6479797   5.0458784  12.3577318
   0.0264975 -36.0254898 -17.7703991  -0.6771326 -35.4854660 -17.4664803
  -0.3913827 -36.5540657 -18.4895859  -1.3828896  21.2653484  33.5907249
  -1.0419036  21.5814800  34.4976654  -1.0894114  20.3475761  33.6625366
  42.0868301 -10.5123444 -27.8251095  41.5771675 -10.3536406 -28.5967350
  42.1260681  -9.6079311 -27.4103451  30.2397385  28.7936230   7.1974578
  30.8854980  28.0498905   7.2650094  30.0298557  28.8108902   6.2452068
 -10.3383970 -14.3854685   4.2714844 -10.2894650 -14.4298325   5.2152367
  -9.5263414 -14.0961962   3.9613526   3.5347013 -34.5554810   9.4720697
   3.1378968 -33.7266197   9.8114662   2.7571046 -35.1298752   9.3812714
  21.4446507  29.7598305 -10.3517323  20.9072132  30.6199093 -10.3574448
  21.2447205  29.4562187 -11.2412138  39.9584999  -3.3281732 -28.0721436
  40.4596252  -2.5024643 -27.8644276  39.0351448  -3.0579460 -28.0144272
   6.3663316   1.1072592  11.7488928   5.5753174   1.7501130  11.7846508
   5.7991185   0.3064613  11.8196983  -8.1016273 -31.4443054 -16.9276848
  -7.7172427 -32.0608482 -17.5103016  -7.4107647 -30.7729263 -16.7243938
  25.7024784 -33.9880867 -29.6472149  25.6014252 -33.4842987 -28.8410168
  26.6200581 -34.0424957 -29.8088245   6.2471085  46.3832207  -9.3681574
   6.8590474  47.1209717  -9.2756510   6.7851801  45.7727814  -9.9167385
  39.9005051 -10.1352034 -13.9102097  39.2751122  -9.4345322 -14.1336470
  39.3983498 -10.8637867 -13.5750151  31.3513603 -16.3259449  -7.7636557
  30.6842117 -16.6852512  -7.1329126  30.9288864 -15.5020828  -8.0429201
   1.4773797  33.6556053 -22.4657955   2.1349936  33.0324211 -21.9871960
   0.6759785  33.1858406 -22.2197227  33.4980850  13.6537647 -30.5449867
  33.3858643  12.6989737 -30.6545963  32.8914375  14.0777035 -31.2085228
 -44.0610046   8.7120056  -0.0218733 -43.7086792   8.5766363   0.8971839
 -43.9667549   7.8362145  -0.3893000 -31.9714108 -15.0036373 -14.1915131
 -31.8340645 -14.2240343 -14.7386026 -31.7397537 -14.6641102 -13.2547665
  25.2133217 -28.6095791  19.3687515  24.2905407 -28.6427612  19.7135868
  25.1216908 -28.2093410  18.4880791 -24.8963184   4.4978690 -22.4292831
 -25.5212898   3.7548819 -22.4792099 -24.1798840   4.0934234 -21.8282375
 -24.0215797  14.1469593 -31.4189262 -24.5797310  14.4637203 -30.6523991
 -24.5232983  14.5326023 -32.1574860 -29.9137745  20.3878899  23.5799961
 -29.2003517  19.8080635  23.9721470 -30.0832691  19.8097019  22.7766132
   7.5031238  36.0080910  23.8436508   8.1540680  36.1875534  23.1447678
   6.7197251  36.4314194  23.3957901 -19.6680679  -2.2548165  14.1507759
 -20.6518593  -2.2189822  14.2479324 -19.4369583  -1.7820386  14.9907732
  26.1372528  26.8725281   3.2755530  25.4147530  26.3997211   2.9054289
  26.0169792  26.5776310   4.2155123 -17.8266602  -4.5421224  22.7970295
 -17.6762333  -3.5975544  23.0524693 -17.1330891  -4.5421824  22.0814362
 -42.3463249 -10.8701458   5.6532011 -42.0268364  -9.9547491   5.6116977
 -42.8008652 -11.0499783   4.8156042 -36.8378716 -22.6373234   3.3369234
 -37.3609352 -23.2758942   3.8937509 -36.9905243 -21.8570709   3.8978736
  25.1253433  -6.5127320  27.8983955  25.2736454  -7.3949904  28.2531757
  24.1897354  -6.6071072  27.5546970 -13.4853144 -17.1387558  24.0117264
 -14.4432440 -17.2305870  24.3184299 -13.3853903 -17.9749012  23.5489559
   9.6177368  45.1450195   7.1133423   9.5793066  45.3245125   6.1080165
   9.9027100  46.0040817   7.4505658 -13.6893911  -3.2961905 -33.2663002
 -14.2047796  -3.7646708 -32.6332397 -13.9563704  -3.7057385 -34.1633987
  -8.4778986  11.3895168  50.0092545  -9.3737955  11.0964317  49.9577217
  -8.2425833  11.4664516  49.0221825   0.8457661  31.0182114 -16.8463688
   0.4765334  31.3085766 -16.0209389   1.6771916  30.6617584 -16.5873299
 -39.1427078  21.4646320 -22.6787109 -38.3926430  21.9228039 -23.0954647
 -39.8547516  22.1484890 -22.6490459  11.6248684  28.7088528  15.4270983
  12.4363298  29.2442970  15.5045090  11.7874527  28.0547333  16.1338272
  42.2610970  12.9022884   4.5477428  43.0587845  13.3017015   4.0767155
  41.7414474  13.6606560   4.7864947  21.2853718 -38.4686127   8.4023476
  20.3540344 -38.6225090   8.7135239  21.6961956 -38.2305794   9.2627258
   1.6126034 -37.5332031   2.4068692   0.7198645 -37.2426796   2.8069465
   2.0293767 -37.8218918   3.2744272 -35.3899727  23.0375404   3.8788710
 -35.9021416  23.8359623   4.0711498 -36.0338402  22.3299675   4.0682244
  38.8388977 -10.3106585  14.7983170  38.3548698  -9.6941757  15.3989992
  39.7467842 -10.3116293  15.2110825 -12.4421024  15.6252728 -46.3099289
 -12.6732693  15.8919859 -47.2368431 -11.5336628  15.2769499 -46.3987846
  17.6009884  -3.8704753 -20.8691483  18.0909233  -4.5297813 -21.3451691
  18.1836224  -3.1447556 -20.7586937  14.2180223  14.9796581   4.3384662
  15.1889305  15.2048426   4.4616089  13.8294096  15.7732430   4.7846832
  27.5486412   3.8461401 -12.7044611  26.7587929   3.9955862 -13.2820282
  27.7080650   2.8817439 -12.9161978  35.8557129  23.7850418 -21.6394825
  36.8090553  23.5408192 -21.8305302  36.0183601  24.6645260 -21.1975250
   4.9698167 -22.9380989  39.5042343   5.5732350 -22.9059372  40.2743034
   4.7900229 -21.9821815  39.3619614  36.9366570   5.3426251 -28.1116829
  37.5919228   5.8606248 -28.5740452  36.1108704   5.4686255 -28.6406803
   3.7696955  40.7108307  -6.9505305   3.3510661  40.2977257  -7.7454748
   4.2715268  41.4444160  -7.3498101 -14.9934807  16.9537125  50.2083054
 -14.9681807  17.3928242  49.2762489 -15.9861546  16.8501282  50.2272987
  15.8362560 -37.4656410  19.9727840  16.2007866 -38.0156898  20.7026100
  15.0241098 -37.1784325  20.4060745  12.7034025 -25.1501122 -17.5765991
  13.1350212 -24.4063148 -17.1433659  11.7707300 -24.9485016 -17.3444042
 -24.2825317  29.5353298   6.1679783 -23.9832821  28.6839752   6.3810744
 -23.7254562  30.1252632   6.6969004  -7.2683001  26.1577263 -11.8500814
  -7.9197721  25.6624813 -12.3824930  -6.4603038  25.6343307 -12.1171637
 -35.5121193 -31.6502056  -8.2014761 -35.8745613 -31.2692318  -7.3444695
 -36.1945915 -32.2354546  -8.5107088   4.6604605  25.1142731 -12.4406347
   5.5246491  24.7679043 -12.7232981   4.7328062  24.9172878 -11.4928236
  -1.2711236  -3.2588551  12.3586340  -0.5798523  -2.8777704  11.7920694
  -0.9465055  -3.0768716  13.2417269  -8.9085903 -17.0316601 -41.0669746
  -8.4796152 -17.2784252 -40.2265167  -8.0630789 -16.7861500 -41.5415993
  -9.2138958 -30.2859325  -6.6662135  -9.8458853 -29.7564869  -7.1966548
  -8.4046307 -30.1938000  -7.2014117 -29.0991325 -35.2953606  18.2671661
 -28.1533871 -35.2381477  18.3559151 -29.2570343 -36.2735176  18.4748440
  16.6935940   4.8686361  28.0963078  17.1369877   5.7647371  28.2011070
  15.7667065   5.2957883  28.1309910  33.3302307  17.3388271 -15.5619326
  32.7327423  17.2257214 -14.8078442  32.7961311  16.9833984 -16.2710361
 -15.7695341  27.0140152 -23.8663158 -15.8744373  26.0413151 -24.0167408
 -15.1213932  27.0315113 -23.1535225  -1.8190866  -9.8431129  37.2021141
  -1.2244142 -10.5988226  37.2134552  -1.4544013  -9.2761621  37.9177322
  -9.2788029 -22.6146851 -31.8595257  -9.5081291 -23.5635757 -31.7487526
  -8.8004446 -22.4604530 -31.0161018  -8.1312037  13.8421164 -15.1672068
  -8.0658522  12.9715729 -15.5829477  -7.5081954  13.6827087 -14.4180651
  11.9959755  23.4659100   0.7382179  12.5424471  23.6406174   1.5107192
  11.4802227  22.6503696   1.0958467  14.7990904  26.9838123  -0.3296535
  15.5987663  27.2542038  -0.7864754  14.3478622  26.4018764  -0.9678756
  11.5765820  28.9107876  30.2799091  11.0360117  28.3296833  30.9438686
  11.9714375  29.5395470  30.9125519 -35.6764412  -6.1764226 -23.8955460
 -35.7036858  -6.5709505 -23.0220051 -36.0653572  -5.3093023 -23.6728306
 -33.1108627  -8.5829029  10.9351196 -33.7657280  -9.1668510  11.4429874
 -33.6637573  -7.8040791  10.7932043  29.6527138  13.2139683  20.9203129
  29.1387787  12.3928127  21.2167912  29.2901688  13.2893248  20.0287609
 -29.3422298   3.3719525  32.0853615 -29.9556160   3.0297749  32.7004356
 -28.7845917   2.5661993  31.8453369  10.5131741  21.3775425  33.1151237
  10.3860073  22.3716469  33.0695915   9.8442326  21.1844215  33.8144569
 -19.4282703 -36.5478630  18.5611477 -18.5757313 -36.7970772  18.1513176
 -19.9716148 -37.3205490  18.3424492  38.9194374   1.8878860 -11.4942617
  38.3287125   2.1413357 -10.7638359  39.6509552   1.3910475 -11.0635948
 -14.8946753 -42.9486160  15.9909983 -14.4960041 -42.5510941  16.7813835
 -14.7422419 -43.8770714  16.1860504 -42.9797516   4.9997458   6.5393643
 -42.5519753   5.6681690   7.1767421 -43.5402794   4.5323658   7.2037325
 -31.6882782 -25.8727474  17.3456554 -30.7054691 -25.7042408  17.3348465
 -31.8250427 -25.7215366  16.3694859 -14.5364819   0.9752741  27.1405697
 -14.5151939   1.0834068  28.0904388 -14.2063894   1.8392417  26.8206062
  28.1275921  27.7071552  13.4713116  27.4278259  27.1727333  13.8905716
  28.2323017  27.3439083  12.5941010  37.0692024  13.1865482  19.0333023
  37.6056252  12.7794237  18.3321323  36.1566544  13.1269655  18.5922127
   0.0846957  46.5047684  15.8385820   0.4056890  47.1952019  16.4173031
   0.1870135  45.7378922  16.4355755 -28.5050240  16.2749615 -32.6320610
 -29.4550896  16.2093697 -32.5798149 -28.2892628  15.9925489 -33.5474815
  23.9139805 -33.2922096 -18.2900753  24.2359180 -32.4866791 -17.8428936
  23.7909908 -33.9071159 -17.5415897 -24.9834042  15.6288548  39.4769363
 -24.3967781  16.0945168  40.1728897 -25.2572498  14.8837347  40.0244713
 -30.8036575 -40.6431694   9.5939121 -31.1968231 -41.2514877   8.9509459
 -30.1868858 -41.2747917   9.9693098  29.0014038 -12.8771563  28.7891941
  29.8598461 -12.3555603  28.8349323  28.5474396 -12.4346771  29.5506268
   2.9840515 -43.0878792  -1.4794598   2.4618540 -42.3950844  -0.9186904
   3.4220207 -43.5980835  -0.7543074 -31.8724289  -6.4733429 -18.9501133
 -32.6594810  -7.1077814 -19.1649723 -31.6670876  -6.2811446 -19.9358826
  16.9003525 -36.0854797 -16.0083828  16.6632919 -36.4587059 -16.9254074
  17.0429306 -35.1826668 -16.2169590   8.4108982 -14.1970148 -20.4028358
   8.7113438 -14.1960449 -19.4586163   8.0958652 -13.2786884 -20.5066776
  24.4904022  26.5230503   0.5770422  23.5784454  26.2265167   0.9021202
  24.8290691  25.6342354   0.3295071  33.9838028  11.3317080  14.9056425
  33.8883781  10.3300934  14.9979706  33.5318794  11.5764990  15.6720924
  -8.3652306  32.7768173 -30.4037914  -8.2569771  33.0858498 -31.3256130
  -9.2589426  32.2987633 -30.5054760  26.2130470 -26.9504032   7.1688209
  26.6518154 -27.6705856   7.6554346  25.9161491 -27.4146709   6.3758197
  41.4419174  20.2086239   1.0822350  40.9450531  20.1060467   0.2785871
  41.7862473  21.0919666   1.0804199  14.6904659 -30.8897076  28.7779560
  14.9877653 -30.9925232  29.6568775  15.5545387 -30.4707661  28.4038410
 -25.9418755 -39.8390923   9.5700922 -25.5763264 -39.3591995  10.3532429
 -25.1432762 -39.9936333   9.0495710 -37.3038483  -1.6380332  35.3608971
 -37.6797028  -2.5568671  35.2518730 -37.8763466  -1.2238092  34.7262459
  18.7974834  -2.5962677 -24.2963905  19.7497787  -2.2930388 -24.2796249
  18.9276237  -3.4123931 -24.7905865  27.1186543  29.3170605  24.2128639
  26.8739109  30.2428265  24.3320045  28.1246433  29.3277473  24.3320618
  20.0147018   4.5117216  24.2047882  19.7836571   3.7980440  23.6525059
  19.1501007   4.7412066  24.6415863  26.9954453  14.8725481  22.8905067
  27.7035732  15.3958321  22.4760284  27.5205479  14.6285391  23.6615887
  -7.3724613  44.2236176  -4.6919127  -6.8479428  43.4471016  -4.5720253
  -6.6912718  44.9652481  -4.6219549 -27.1763935 -36.1251297 -12.5064993
 -26.2882862 -36.1292191 -12.9558296 -27.5567169 -36.9296074 -12.8968868
  18.8673172  20.5049400 -17.4806747  19.1062756  20.0118809 -18.2592640
  18.3699627  21.2478046 -17.8892002 -43.5407524   0.8236219  19.2249546
 -42.7972641   0.5797202  18.5666256 -43.3666725   0.2749776  19.9804249
 -16.2867107  -9.9941454 -28.6219158 -15.5346441 -10.5456886 -28.7956696
 -16.6079636 -10.2277126 -27.7625446  35.7385025   6.2383170 -19.2640514
  35.7873955   7.1194015 -19.7457294  36.5765305   6.3496218 -18.7504139
   2.7365141 -13.6494322  -6.5092845   2.2416885 -14.4259272  -6.3343654
   3.4116523 -13.9330301  -7.1410522 -21.1046257  -6.3495708 -28.5301647
 -20.5574398  -7.1410761 -28.7580891 -21.9957581  -6.7063746 -28.6509724
  -7.1058621 -47.3363686  -5.0527215  -7.2288890 -47.3110962  -6.0218606
  -7.8173442 -48.0010796  -4.7849655 -40.8924637  20.3842793  10.2808647
 -41.5569077  19.7047005  10.0537529 -40.4689980  20.4097557   9.3977623
  31.5427723  14.0659695 -16.0187588  31.8132610  14.3966179 -15.1367598
  31.6023903  14.9174528 -16.5271168 -22.8245716  -4.4376922   0.2372507
 -22.4533119  -5.0459733  -0.4316842 -22.8611774  -3.5974457  -0.2356288
 -24.0678616   3.9477155  42.6467476 -24.2745991   4.1001568  41.7116432
 -23.7358627   4.7994533  42.9917488 -11.7684889 -22.9979763  10.5110445
 -11.6814098 -23.0043736  11.5260735 -10.9760447 -23.5254002  10.3127632
 -23.1007862  10.4366350  21.3413200 -23.2468872  11.2462234  20.7966461
 -22.1882591  10.5536661  21.6601715  25.6113415  11.3304262 -25.9686871
  25.3716393  10.7967749 -26.7867184  26.5717621  11.1784868 -25.8869801
  22.6215401  38.4008369  13.9335890  22.9909401  38.7993813  13.1135807
  21.9429760  37.7896729  13.5868540  -5.0352759  42.1741219 -18.4919510
  -5.4573574  42.7110672 -19.2521229  -4.2844853  42.7884979 -18.3467026
  31.4568062 -14.6874084  14.8958015  30.7904034 -14.9137907  15.6046333
  31.8615990 -13.9106731  15.3338022  39.4141083 -26.1842442 -10.7908735
  40.0852928 -26.8032589 -11.1099710  39.1937447 -25.6701984 -11.5833158
   4.7361069  37.8141251  -8.0209646   4.6571698  36.9124641  -8.4943676
   4.5672779  38.4372406  -8.7218304 -27.0233154  36.0020714  -7.3820376
 -27.6159306  36.1791000  -8.1309280 -27.1946869  35.0049133  -7.3146067
 -29.7790051 -11.3037024   7.9883361 -29.1295471 -10.5916185   7.7638464
 -30.1277161 -10.9736433   8.8430347 -15.4710417   1.0880091  18.1014004
 -15.0143051   0.3048577  17.7945709 -15.9668303   0.7220780  18.8926678
 -30.0666084  12.4379835 -21.7708340 -30.9615860  12.6435843 -21.5459957
 -30.1611328  11.9659758 -22.6579494  34.4320412  35.6658821   4.0154376
  34.3729401  36.3704910   4.6199937  33.5116234  35.5840569   3.7011454
  -1.3963571 -41.0835876 -29.7396202  -1.0795507 -41.4512024 -30.5647564
  -2.0162232 -40.4136658 -30.0705681 -10.4041290 -28.9000568 -32.0272102
 -11.1524019 -28.2478027 -31.8162727  -9.9487181 -28.3630371 -32.7619247
  -3.7802362   5.7320113 -11.9240103  -4.3943987   6.2345977 -11.3402233
  -4.3638062   5.4309397 -12.6344194   9.1682577  32.6724739  -9.9482737
  10.0138855  32.7519989 -10.4936752   8.8098783  31.8603611 -10.3676615
   8.1420021   7.1531415  -7.0280943   7.3258109   7.6903377  -7.1433687
   8.6939430   7.7029152  -6.4652810  34.7431030 -16.9065075 -26.8680897
  34.2791634 -16.3269062 -27.5312290  35.6274338 -16.5100536 -26.9396343
  25.1237812  20.8626976  24.5594673  25.0488415  20.1853790  25.2674961
  25.6160431  21.5626678  25.0540981   6.1831703 -15.2914772 -32.3819580
   6.2882094 -15.4195757 -33.3736420   6.4461770 -14.4435558 -32.2289009
  -1.2007406  24.3627262  39.7578392  -0.2943479  24.4056053  40.1388702
  -1.7749908  24.6019249  40.5282936 -14.3966484 -38.3328362   3.2374144
 -14.2540874 -37.3841782   2.9687862 -14.5459137 -38.7146873   2.3194237
   1.3368231  29.4833641  26.6898155   2.1258283  30.0327091  26.5729523
   0.6568242  29.9972935  26.1898880  21.6690655  -5.3796830 -47.4639473
  20.9936485  -4.7269192 -47.2136650  22.5130291  -4.8146181 -47.4768219
 -14.1589823  -0.0002945 -14.2214003 -15.1137733   0.0241869 -13.9690447
 -13.8120661   0.1962608 -13.3224049 -18.8367004  23.6932907 -15.3374681
 -18.0542336  24.2789936 -15.5367270 -19.2475681  24.2198505 -14.6762543
 -24.8433399  -4.0005398 -13.3035402 -25.6964779  -4.2886343 -12.9044514
 -25.0879154  -3.9657629 -14.2549124  -1.6555021  -4.1407595  -0.7246512
  -1.0443325  -4.7384005  -0.2711391  -1.0495795  -3.6823440  -1.3814654
 -13.9417162   8.9141188 -10.1799927 -14.8090382   8.8736753  -9.6935205
 -14.3328686   8.9315853 -11.0852127   4.3120413   4.2258663 -20.6726074
   3.3264639   4.4656477 -20.5333118   4.0961957   3.2790437 -21.0420456
 -18.0029850  20.3380280  10.2538586 -17.3907318  20.2656631   9.4874821
 -18.8541298  20.1563721   9.7687378  -9.5761166 -20.3436375   7.2954206
 -10.2996235 -20.9554348   7.1241751  -9.9979782 -19.6729183   7.8692136
  41.1710167  -0.6298779  14.5529957  41.5207024   0.1269581  14.0374985
  40.6330872  -0.1786631  15.1786127  35.2089806 -27.0797672  26.0935593
  34.6773796 -26.9043751  26.9005318  36.0583992 -27.3008022  26.5170193
  34.4210625  -2.1445150  32.4750595  35.3468361  -2.3426986  32.7163734
  34.3296814  -2.8060303  31.7381039  16.0399361  19.5434418   6.5089164
  16.3242722  18.6187706   6.6542454  15.4135847  19.6204872   7.2626061
 -25.3513451 -32.8795242  -3.5916314 -26.3351860 -32.9408569  -3.8306947
 -25.0854740 -33.7087975  -4.0546007  43.4809608   7.0988975  -5.1991105
  43.6960373   7.0909648  -4.2129140  43.1730919   8.0140314  -5.2930875
 -32.0420341 -39.7206497  -1.5339056 -32.7285233 -40.4873619  -1.5873803
 -32.3514252 -39.1438560  -2.2973258 -16.8950710 -46.3256264  18.7033539
 -16.7639751 -46.8236084  19.5624428 -16.7313385 -45.4148178  19.0560570
  -4.5556788   3.5134945  26.3390827  -3.6542611   3.9508271  26.2964954
  -4.9691148   4.2485685  26.7959328   9.6247835  -0.9784949  30.8755989
   9.7317448  -0.1662283  30.2912941  10.5346584  -0.9532900  31.3123627
  -3.8241496 -23.7403851  32.6872978  -3.4094100 -24.3764439  33.2917061
  -4.2295551 -24.4489288  32.0769005 -11.9559021  35.0363274  -9.9506845
 -11.3995571  35.7595520  -9.6428299 -12.1703901  34.5895233  -9.0886612
  20.8197117  -5.7492738  -7.4759808  20.7885990  -4.8114214  -7.1480131
  20.4659615  -5.5895972  -8.4007406  23.0557384  -4.9764805  -3.6328313
  22.6794968  -5.8399186  -3.7500715  24.0098515  -5.2448606  -3.8689909
   1.4096358 -38.4953728 -16.4092789   1.2882696 -38.3584747 -17.3415489
   0.5162963 -38.9910164 -16.2633038  19.3059216 -33.6724625   5.4981494
  19.8331814 -32.8060455   5.4620490  19.7061520 -34.0660629   4.6856065
 -43.8499107  11.8587427 -19.3801537 -44.5127449  11.5977230 -18.7437191
 -43.3760757  10.9499798 -19.4331779  39.2124901  -2.5543277  13.4941492
  40.0523796  -2.0501280  13.4371309  39.0243797  -2.4567869  14.4962730
  10.1216974  -8.0689278 -14.0665379   9.4915972  -8.0544348 -14.8584223
  10.2885752  -7.1300983 -13.9287386 -31.8159103  13.4358931  23.4505348
 -31.8869228  12.4986229  23.5366440 -31.5267563  13.7340012  24.3082294
 -12.2867298  16.2906036 -19.1308765 -12.4586334  15.5237741 -18.5542374
 -13.0660744  16.8360615 -19.0044823 -14.0969305 -22.8839245 -20.3408813
 -13.2006006 -23.2857208 -20.1618023 -14.4188223 -22.6885605 -19.4387875
  -6.8155193  16.2519493  -7.2465405  -7.1056380  17.1619225  -7.2257318
  -6.7919359  15.9921770  -6.2981429 -16.1912899 -26.9886341   4.6996498
 -16.5729637 -26.0920963   4.3044043 -16.2099762 -27.4990616   3.8335068
 -22.8419075  20.0814438 -33.0843277 -23.2191200  19.6740150 -33.8866806
 -23.0643044  19.3931980 -32.4014244  -2.8492763 -21.7057838  38.1127510
  -2.7462461 -22.1995163  37.3261986  -3.8308089 -21.4113026  37.9900322
  -6.8188219 -27.3724346  13.1385136  -6.5240526 -26.6654148  12.5821285
  -7.7817783 -27.1976299  13.2061844  20.1999760  41.6547356   9.4374743
  19.7841282  41.8083382   8.5698156  20.7447929  40.9051018   9.2181921
 -15.3222389  34.1508293 -26.3076248 -15.0807858  33.2403564 -26.5582123
 -16.2680473  34.2078934 -26.5215321   1.3426133 -19.4828873   0.1214829
   1.9547746 -19.3557568   0.8461642   0.7347748 -20.2053261   0.4526756
  13.3188572  24.9728165  16.2473583  12.8982058  25.7729111  16.6517086
  12.9758272  25.1218147  15.3543730 -11.6080599   3.2546487 -17.8357353
 -12.1514626   3.9883881 -17.4569416 -12.2021666   2.4716330 -17.5228329
  14.4881544  -3.9537768 -19.0898876  14.5586004  -4.5976038 -19.8099575
  15.0399637  -4.3122392 -18.3905716  12.1694031  13.5928354 -10.7546568
  11.7203569  13.7942505  -9.9529696  11.3732948  13.8092813 -11.3885317
 -28.3398876 -23.5122490   1.0020466 -28.1843605 -23.7936459   0.0730207
 -27.4539261 -23.6950283   1.3452815 -40.9418793   1.2536374  21.5941067
 -41.5057716   1.9099588  22.0414219 -40.8533058   1.7140306  20.7117786
  23.2895718  26.5622616  -2.9114633  22.6732140  27.1346607  -2.4126284
  22.9936104  25.7014942  -2.5338728 -14.6130514 -25.1750660 -14.9892025
 -14.9908619 -24.6775875 -14.2725935 -14.7870388 -26.0840874 -14.6532459
  29.1681538  -0.8284850  10.5689955  30.0872688  -0.7949824  10.9369783
  28.7366295  -0.8025019  11.4382391 -21.9919281  31.2703667 -28.4854946
 -21.0737610  30.9863262 -28.7207794 -22.4378185  30.6948090 -29.1888046
  22.8993034 -17.0237904  42.8104210  23.5237770 -16.4083786  43.2120399
  23.4580441 -17.5446987  42.2340355   1.8689358 -15.0622015 -27.1542931
   2.8155882 -15.3247375 -26.9116974   1.8704762 -14.2373104 -26.6048584
  18.4742393 -16.6593113  16.6461277  18.0559311 -15.8240976  16.9500675
  18.1842289 -17.2446327  17.4086113  37.5618515  17.3984833  -2.3083327
  37.4967613  16.5495148  -1.7191732  36.6583481  17.3890934  -2.6393030
  32.4166336 -22.7693958  -3.7507639  33.1737328 -23.3412075  -3.9702497
  32.0495300 -22.7262802  -4.6644011 -42.1593323  13.7852259  13.6118069
 -43.0226288  13.3424683  13.7896080 -42.2262115  14.3963642  14.4762564
   3.0334527  23.9901600  -6.2689166   3.6163485  23.5300713  -6.9553604
   3.6802478  24.6200142  -5.9110131 -20.5377331  -0.6629794  11.5214148
 -20.2471485   0.0781921  12.0474634 -21.3713531  -0.9026271  12.0190945
  13.1268120  14.8700237 -26.7958755  13.3809090  14.1816502 -26.1573868
  12.4035320  15.3115988 -26.2845917  13.6503458  20.3233566  17.8208351
  12.9673929  19.7817974  17.5092621  13.1606503  21.2520027  17.7479649
   7.8790803  26.6181583 -35.0562630   7.6985407  26.5026379 -35.9837074
   8.4323854  25.7867184 -34.9180946  22.6791420  15.7639494  17.9573021
  22.9642029  16.5631580  17.5205956  23.5890789  15.3509216  18.1558857
  41.1558838   7.1872597  26.1053219  40.4238091   7.8221407  26.1764069
  41.6869736   7.5954914  25.3657360   6.9072595   1.4091380  18.4582825
   6.9478049   0.7509472  17.7360134   7.0451903   2.2290373  17.9555912
  13.2598696  44.3314934 -10.1717367  14.1315355  44.8266640 -10.3519354
  13.6810455  43.4573059  -9.9694271   7.9060593 -25.4357586 -20.0035896
   6.9878044 -25.6411610 -19.8114433   7.8326960 -24.4846172 -20.1921730
 -38.5713844  29.6238689 -22.6552505 -38.0550270  29.9470310 -23.3667145
 -39.4616890  30.1130733 -22.7955017 -26.1650066  -6.3377972   7.3679457
 -25.3432388  -6.8461699   7.2735081 -25.9421253  -5.6944990   8.0653925
 -19.5984688  27.4057159 -34.5674667 -19.0203648  28.0426483 -34.1716843
 -19.0907402  27.2195644 -35.4249687  42.9142685  14.5679607  -1.3262837
  42.8429794  14.9901838  -2.2485216  42.2546463  13.8826809  -1.3325344
   1.7432669  44.1110420   2.6205499   1.7021593  45.0969162   2.7808390
   1.4203242  43.7930450   3.4820826  37.4844360 -12.5761061  15.1438618
  36.6951065 -12.0934343  14.7572718  38.0954514 -11.7351856  15.1294479
   8.5253143 -16.4165936  -8.9624434   9.3845263 -16.4647369  -9.4646091
   7.9006424 -16.6201973  -9.7723799 -16.5709190 -26.6289749  -6.5460496
 -17.1221790 -26.0219078  -7.0349345 -16.5602283 -27.4074154  -7.1997547
  -0.8998192  17.7344704 -25.5625038  -1.6516675  18.3641052 -25.4323635
  -1.1120133  17.0678558 -24.8772964   5.0926714  -2.5652568  31.9546776
   4.4586353  -1.9264202  32.2730789   4.5117459  -3.2316632  31.5368099
 -21.0629539 -36.2118607  14.9088974 -21.2541256 -37.1453400  14.7421942
 -20.2293797 -36.1300125  14.3767529 -33.6399612  19.9932060  10.3887138
 -34.0816612  19.6066494   9.5772791 -33.7394371  20.9260921  10.1636600
   9.4309254   0.6689045 -23.5533810   8.6021357   0.7911921 -23.0767899
  10.1128302   0.9189464 -22.9312706 -33.6480179 -34.0157471  -0.9000227
 -33.0873756 -34.5732269  -0.3630930 -34.0622711 -34.5963936  -1.5479053
 -15.3146524 -22.2588749 -24.5023499 -14.7209806 -21.7450752 -23.8956909
 -16.1428261 -22.2555065 -23.9607334  40.9226379 -18.2733994  27.5296860
  40.6811485 -17.4357338  28.0002728  41.8595886 -18.3509960  27.8788567
 -13.0569878 -41.0253639   5.8430533 -13.8213768 -41.5918007   6.1076622
 -12.5252199 -41.1228523   6.6515155 -44.2577629  -4.6634121  29.7408772
 -43.4803619  -5.0522265  29.2912540 -44.9246674  -5.3852277  29.5346260
 -10.3312721  17.4809532  14.4265175  -9.6523304  16.9767151  14.9446983
 -10.9072456  16.8052673  14.0704699  19.6607876   2.0917501 -29.0143051
  20.5094490   2.0189517 -28.5724716  19.8291492   1.5594995 -29.8071880
 -43.1867828  -4.7762885   6.9551592 -42.8139763  -4.1104760   6.3291097
 -42.4042168  -5.0357780   7.5149107  -8.2160997 -28.6010017 -10.4722137
  -8.5229082 -27.6952038 -10.6580362  -8.5842924 -29.0673618 -11.2301741
 -39.3608551  10.5117636 -23.4958916 -40.0486069   9.8398714 -23.2365589
 -38.7286949   9.8993015 -23.9372940   2.9801974 -20.8170853 -29.7828140
   2.4649005 -20.0593014 -30.0627384   2.4980111 -21.0874920 -28.9946651
  -0.3504072  41.4429588 -12.4008398   0.0200762  40.5460472 -12.5809889
   0.3633312  41.7005997 -11.7420635 -21.9929657  29.6080208  -5.8530631
 -21.4688015  30.2215538  -6.4116683 -22.4170704  29.0288944  -6.5176325
   7.5500393 -34.7615051  18.8362808   6.7535892 -34.1755219  19.0093727
   7.0846038 -35.6099663  19.1301231 -32.3706512   1.4233443 -30.1303215
 -32.0607643   0.6352624 -29.5961647 -31.6760406   1.3855646 -30.8202496
   0.3094579  -5.2490530 -29.4631443  -0.6479397  -5.4783831 -29.3978615
   0.3913725  -4.3944740 -29.0339737 -34.4862595  13.1265478  20.5035458
 -34.0837975  13.5835228  19.8090038 -34.8866081  12.3394766  20.0201969
  10.3061409 -26.2034416   9.8179092  10.8310919 -26.6384678   9.1429949
   9.7176476 -25.6600761   9.2780409  -0.0683415 -46.5593643   2.2127156
  -0.4262699 -46.1431808   3.0079186  -0.8452055 -47.2625351   2.0883000
  23.4429455   8.3675613  24.5167923  23.9870930   8.3836956  23.6709080
  22.6485767   7.8564925  24.1418839  17.0749435  34.5034485 -24.4733143
  17.7064152  34.7122917 -23.7225761  17.6107121  34.8293953 -25.2287846
 -38.4874420  33.8908424  13.4844570 -38.1345291  33.3117867  12.7608976
 -37.9566307  33.6541824  14.1914244  -4.8352504 -33.1020126  -7.7328310
  -5.5669937 -33.1167297  -7.1450548  -4.1933680 -33.7204742  -7.3373022
 -13.7190475   3.9098334  26.2369480 -13.4266119   4.6435480  26.8076897
 -12.9228153   3.8375952  25.6366539  10.7705526 -19.7986774  -4.7828140
  11.5366955 -19.8264313  -4.1854157  10.9901667 -19.0896759  -5.3819118
 -14.8530025  -6.9994674  19.7951984 -15.3367691  -7.7034984  19.2977448
 -14.1058483  -6.8299813  19.1354733  40.6247139 -24.6871376  -8.1082182
  39.7200050 -24.4248810  -8.3167706  41.1298218 -24.6764660  -8.9376955
 -14.1587477  -6.9338274 -42.8589821 -13.7603455  -7.0355120 -43.7961273
 -15.0977077  -6.7894092 -43.0777245  10.6238165  20.8824997 -12.8625860
  10.7896919  19.9340572 -13.0503559  10.9346447  20.9709034 -11.9594746
  15.3118439  15.0974522  16.2018661  15.9174490  14.3577900  15.8958597
  15.4187517  14.9629755  17.1189804  28.2282295   2.3695190  37.0735435
  28.2448406   3.0808768  37.7194519  28.8462963   1.7852939  37.5911789
 -32.5735741 -18.8479271 -24.7755852 -32.3525238 -19.7809734 -25.0191650
 -33.4962540 -18.9517002 -24.3401966 -16.3197269  -5.8142500  10.7441778
 -15.3955669  -5.5799775  10.7369661 -16.3048191  -6.4846072  11.4979639
  19.4585953  -8.5114002 -34.9195671  19.1425018  -8.0157471 -35.6859589
  20.1646881  -9.0402088 -35.2949867  18.5612755 -27.1467762  -3.1648078
  17.9327335 -27.6195412  -2.5541790  18.3650818 -27.5911255  -3.9894593
  -4.8104386   6.0896945  34.4084129  -5.0058904   6.4402251  35.3021545
  -4.7836657   6.9276538  33.9092178  -6.4904695  -2.9136801 -12.9969511
  -6.4077916  -2.0664136 -13.4277573  -6.1207891  -2.7668786 -12.0909033
  40.6053276  11.7565279 -17.3347321  40.9090500  12.1738949 -18.1926327
  39.6653023  11.5240145 -17.6031342  19.0283318 -30.8935509  22.9262600
  19.6066856 -30.6416168  23.6804790  18.2137222 -30.9600601  23.4558258
  -8.1989794   5.3005462  -1.7817924  -8.1525917   5.8031235  -2.5815806
  -8.4613848   4.4253759  -2.1059728 -29.7169151  -0.4598194 -15.5759535
 -30.0412388  -0.5379344 -16.5467949 -28.9373016   0.1451814 -15.7014408
 -16.0767670 -14.7204418 -31.0916214 -16.0463276 -14.1210842 -31.8433552
 -15.8991842 -15.5712261 -31.6090908  18.1532555 -18.6330776   7.8937531
  18.9340954 -18.4963303   8.5535574  18.3752689 -19.5929928   7.6276135
 -19.7155914   5.3564425 -16.6651859 -19.7676277   5.3875771 -15.7198477
 -20.1219063   4.4991040 -16.8459263 -37.4122162  14.9459906  -9.5492239
 -37.2103539  14.2590914 -10.2890530 -36.7442055  14.5838013  -8.9182692
  29.8929710  25.0189476  -4.1815324  29.7423229  24.1142426  -3.9038761
  30.2384853  24.9741821  -5.0872998  16.8692532  10.6541634   0.8375116
  16.6369972  10.2210522   1.7264171  16.9130135   9.8287334   0.3047920
  32.9124603  23.5611267  -9.5847082  33.8355484  23.9284306  -9.3810701
  32.8103294  22.9943256  -8.7891665   0.8812408  -5.8278193 -41.5232430
   1.5559156  -5.1040530 -41.7531166   1.3352255  -6.6457357 -41.5068855
 -35.4636574  31.1799660  -8.3653889 -34.9859772  31.9539032  -8.6728916
 -34.8643646  30.4696293  -8.7611113  35.7718735  10.3323526  27.6379223
  35.8796272  11.2085247  27.9894142  36.4484940  10.2221241  26.9640980
  -4.4511309  26.0479736  10.4819098  -5.4536562  26.1244183  10.6854391
  -4.2505236  27.0111198  10.7316113   0.2308455  10.4142208  34.2922440
   0.6605999  11.2283068  34.7228775  -0.4151817  10.9584188  33.7271576
 -43.5266991   8.6816263  26.1567879 -44.2436333   9.2686911  26.4110355
 -43.9875412   7.9922395  25.6625137  26.2175140  35.9821281  -5.3436069
  25.7006760  35.3008690  -4.8348875  25.4982910  36.2536964  -5.9557486
 -41.9240646  -0.3432571   5.8307438 -41.8491287   0.2300603   5.1012149
 -42.2694054   0.2696422   6.5137286 -10.2961140 -36.9611168   8.4844151
 -11.0119677 -36.3242264   8.6525574  -9.5119944 -36.4145508   8.8023224
  44.5691605  31.4201508 -16.8017139  43.6320915  31.6490231 -16.9762764
  44.5772476  30.4879761 -17.1466351   6.8281221   3.9479730  16.9637299
   7.3235364   4.5991340  16.4347363   5.8869934   4.0662384  16.6148376
 -22.9997368 -14.3403273 -28.5116291 -22.9946098 -13.3900309 -28.7442055
 -23.7280159 -14.6511545 -29.1606293  24.2939491 -35.6259308  13.2159863
  23.5999794 -35.1173973  13.6377220  24.3507957 -36.3801079  13.8685045
  39.3287773  -6.1050777   9.6601963  39.7233086  -6.5338998   8.8996868
  39.7769127  -6.5588183  10.3645153  -0.7880843  45.2568893 -27.6055088
  -1.7080472  44.9475250 -27.6163445  -0.8842370  46.0019341 -28.3142548
  10.2796516 -10.7011557 -52.1808128  10.1153984  -9.7770338 -51.8326225
   9.4565535 -10.9382982 -52.5793343  20.2103596  -7.5478477   6.7426848
  19.6482906  -6.8701878   7.1529508  19.7615108  -7.7024298   5.8579469
 -27.8444958  14.1539526  35.8614044 -28.7081623  14.5851765  35.8870049
 -27.9152317  13.5394115  36.6261520 -21.7315693 -22.8586483 -23.8603325
 -22.6185703 -22.6479015 -23.5968075 -21.9272518 -23.6140347 -24.5274715
  30.6639328 -29.6627598 -17.7933311  29.8212814 -30.1170063 -17.5585918
  30.3967686 -29.6696472 -18.8197498  36.6115913  35.3634262 -18.5099545
  36.5330582  34.5553093 -17.9277039  37.1862335  35.1173973 -19.1615963
  -2.0034175 -44.4478188 -23.1761284  -2.7891185 -44.4760094 -23.7786713
  -1.3265066 -44.8915596 -23.6552372  43.6214180  16.6682072   4.0890713
  43.0171394  16.2412205   3.4798434  43.8496552  17.4903831   3.5743694
 -44.1779861  18.3098145 -22.0756474 -44.2785797  17.4379463 -21.5984840
 -43.4300232  18.6700859 -21.6279984 -17.5777683  11.4706221   2.1479685
 -18.5099316  11.7374144   2.2198031 -17.5445404  10.9412632   1.3349051
 -13.6653032 -24.5521259   9.1534901 -14.0753660 -23.7811050   8.7362337
 -13.0383749 -24.0808449   9.7686052  22.4870930 -14.1011200   4.1504879
  23.1088753 -13.2727051   4.2009611  21.6642475 -13.6499920   3.8664639
 -11.8455744 -21.5508270 -25.5029526 -11.8610373 -20.6352272 -25.8439636
 -12.1062012 -21.3926411 -24.5831947  35.7604828 -34.1002922   2.0351822
  35.6231194 -34.8396187   1.4819241  34.9017258 -33.5375328   1.8109156
 -28.4177456  -4.4167900  20.4306068 -27.5155392  -4.7525511  20.2686005
 -28.0929756  -3.4322968  20.4336662 -15.1506758 -36.7893715  13.0708122
 -15.8493929 -36.9106522  13.7743216 -14.4218359 -37.3456383  13.4346409
  -9.1349354 -31.9202785 -26.2023602  -9.6277409 -31.1128311 -26.5246372
  -9.9162397 -32.5269661 -26.1453419  -1.1707159  30.2975349  25.1928120
  -1.8952196  29.5753651  25.2788162  -1.2933770  30.6893368  26.0269966
  19.4742279  22.4423828  16.1546688  19.9870148  23.1586628  16.5091572
  18.9736328  22.1714745  16.9510040 -14.9188166  41.3215904  27.1131420
 -15.4385729  40.7397308  27.7025852 -15.5920210  41.4989624  26.4376583
  -9.0417528  22.0739422  28.4251537  -8.4340305  22.8598480  28.5362892
  -8.4512281  21.3289528  28.7558784  30.7530022  18.6072388  -9.4600992
  30.3140430  17.7018375  -9.6906052  31.6733036  18.3525372  -9.3959742
 -34.5559425  -3.1478281   0.7028398 -34.1783371  -2.9020030  -0.1942164
 -35.1914520  -2.4632640   0.8657719  -8.9548721   0.3799700  35.6678429
  -8.5520935   0.2021607  36.5732040  -9.8068905  -0.0056551  35.8452492
 -24.8950348  -5.5126662  40.2456245 -25.1922379  -5.8262539  41.1222343
 -24.6133881  -6.3375392  39.8113060  20.6692848  -4.6686578 -27.5007286
  19.9810143  -4.9080882 -26.8736324  20.2518101  -3.9489195 -27.9828339
 -11.7618732   2.7247016  50.0924187 -11.0693970   1.9926157  50.0797501
 -11.2856541   3.2276368  49.3320618  35.0318642  30.7986813  -7.3408766
  36.0153427  30.6407909  -7.2384801  34.9306641  31.5298538  -6.7287378
 -12.2217131  42.2944527   5.0629168 -11.6678448  41.5468445   4.6593890
 -11.8814535  42.3430519   5.9461150   1.8371273  -3.5552607  25.9864693
   2.4787700  -3.9116595  25.3675613   1.8662604  -2.6165898  25.7196770
 -23.9135666   0.6456155  18.8593102 -23.3752251   0.7243205  19.6941414
 -23.6160793   1.4969749  18.4537811  13.3599043 -18.6514511  12.6785889
  12.7187653 -17.9110298  12.7656689  13.7683706 -18.5737324  13.5756235
  10.1112471   0.9356815   7.2683148   9.7739487   1.2579807   6.4337258
   9.9771566  -0.0186723   7.1665640  30.9829559  20.3958721   6.7597265
  31.9386883  20.4498959   6.7550244  30.6741791  20.5921917   5.8620839
 -33.5735016  34.0628586  10.3105621 -33.4558144  34.0224075  11.2879610
 -33.7783051  35.0493088  10.2259350  -1.6428616  35.3927193 -32.2071915
  -1.0435730  35.9509354 -32.7345810  -1.0503631  34.8751030 -31.6612396
  37.0314751  -7.0695539  -3.0611029  37.7349091  -7.7654190  -3.1722977
  36.4398727  -7.5468469  -2.4793751  42.2947235 -24.7880726  -5.7750936
  41.6850777 -24.5420437  -6.5032129  43.0138283 -24.1874218  -5.9637861
  29.6509075  27.6226940  23.0221024  29.5058880  28.6087761  22.8721275
  29.3119450  27.5554600  23.9133377  31.2317581 -19.1174984  28.4924316
  31.8933296 -18.4508305  28.3118744  30.4209175 -18.5516129  28.2141418
  13.1827803   0.6824585  18.8567791  13.5625334   0.1155718  18.1435223
  12.5155754   1.1941410  18.4039307  37.1091995  12.2715111  25.0988197
  36.4381676  12.9631348  25.3610706  37.7405128  12.8644829  24.6649265
  -9.6559029  30.5659714  19.8911133 -10.1857834  30.6738396  20.6698875
  -9.1946878  31.4219608  19.8034744  10.5422106 -34.6501732 -22.2187080
  10.9651546 -33.9701271 -22.7921982   9.6265678 -34.6552963 -22.6353607
  -6.1909432  33.9579582  14.1018801  -6.1993313  34.3162537  13.2073803
  -5.3443632  33.5191307  14.1343985 -41.2566719 -15.4691944 -14.8547354
 -41.2785950 -14.4706335 -14.6258421 -40.4043007 -15.6291771 -14.4412889
  25.0294895   3.3403280   4.3922949  24.8561783   2.3946788   4.0662317
  25.7916107   3.5541201   3.8298407  -3.4948313  33.3154716 -34.5074387
  -2.5787084  33.5732346 -34.8412247  -3.2516334  32.5753212 -33.9212189
  20.8651428   0.7566456 -33.9006310  20.6200466   1.5317178 -33.3354378
  20.0003777   0.4211411 -34.1496887 -13.4827156 -32.0008049 -21.8277493
 -14.4494123 -31.6380634 -22.0516415 -13.3707848 -31.3129768 -21.0850315
  10.2079601 -21.3704586   1.4055622  10.3800583 -22.2847118   1.5292298
  10.0526094 -21.0476360   2.2807176  43.9454079  -4.3275914   9.2608662
  44.9317017  -4.5705719   9.2826576  43.7046623  -4.8817549   8.5038013
  19.1151009   7.8590579 -15.2674503  18.1657467   7.7003889 -15.5210133
  18.9173164   8.7018671 -14.7321081  18.5396137  18.6691837   1.5079648
  18.0318699  19.5120697   1.5343585  17.9709454  18.1804352   0.8172924
  -3.0419817  39.0306969   2.6149373  -3.0736816  39.9776001   2.3603840
  -2.1278882  38.8795471   2.8245249  -4.7353730  27.1360779 -30.1717796
  -4.6684637  27.5973969 -31.0034161  -4.6254764  26.1839333 -30.4351826
  16.8795547  17.5628223 -32.9753265  17.7499619  17.8578262 -33.4274940
  17.1991634  16.7827415 -32.4955482   7.1372242  47.9620934 -19.3792000
   7.6862631  47.6455498 -18.6637039   6.3406382  48.2087326 -18.9171829
  -5.5925226 -24.0197296 -28.6019192  -4.7427201 -24.5186844 -28.6956482
  -5.9067469 -24.0613270 -29.4998989  19.5657787 -29.3377781  25.2217369
  19.3698711 -28.6422520  24.5936317  18.8418255 -29.2216816  25.8915577
 -12.2835560   9.3949337  11.6529455 -12.7207928  10.2445860  11.9264193
 -11.9074116   9.7024622  10.7895374  -8.4846687   7.0882125  19.4606876
  -8.4907751   7.0974164  18.4867287  -7.5782900   6.7968359  19.6736755
 -29.3593731  28.5264263  -2.0700026 -29.2679043  27.5456944  -1.9439242
 -29.4887352  28.7110710  -1.1129978  -6.6425977 -26.0654564  31.7496967
  -5.7204304 -26.3176174  31.5299377  -6.6999326 -25.2098465  31.3724747
  26.8799286 -22.2034950  -5.1763940  26.5421429 -22.5827389  -4.3117285
  26.0843754 -21.7072811  -5.4036622 -32.6412621  11.5190420 -29.7325306
 -33.2422638  10.8101892 -29.6440086 -33.0698891  12.0597391 -30.4633961
 -14.5441542  27.0694962  20.7012367 -13.6714497  27.2226963  21.1153507
 -15.1215982  26.8732567  21.4844971 -30.6420727  30.4779549  -3.4981062
 -31.4924107  30.4972973  -2.9507985 -30.1858349  29.7136993  -2.9989331
  37.1042328 -11.6896591  32.8468285  37.9933167 -11.3298950  32.5535622
  36.8038826 -11.9789305  31.9187336 -24.9488182  15.9740381 -33.4411545
 -24.7083149  15.6571894 -34.3753510 -25.8770943  16.1372452 -33.6412010
 -36.4027405  -3.5318079   9.2166882 -36.7435379  -4.1517649   8.5013866
 -35.4505234  -3.6117408   9.1568336  42.3818932   0.7968732  26.9583168
  42.2981224   1.4825661  27.6366768  43.1345825   0.3292865  27.2966232
  -4.4989381 -14.0041914 -17.1538086  -3.8997762 -13.9118023 -17.8743267
  -5.3593721 -13.8469639 -17.5054207 -22.6514072 -15.4982748   1.4671639
 -22.9933300 -14.8737049   0.8000641 -21.8268681 -14.9959602   1.7262647
   4.0171237  -9.2749281  33.3541069   3.7761400  -8.3307161  33.2862473
   3.2083995  -9.6992798  33.6757011  -5.7335086  -4.5226350 -47.0934219
  -5.1812859  -5.3065004 -47.3453178  -5.7411880  -4.0419245 -47.8952675
 -33.7456627  27.9372463 -21.5904999 -34.5386276  27.6748428 -21.0915718
 -34.0371246  28.9063358 -21.7242527 -16.1360588  -6.9979849 -19.9680328
 -16.4391518  -7.4017663 -19.1676178 -15.1987009  -6.9011817 -19.8142033
   5.4100761  -3.0920308  10.8867331   4.7842321  -3.1479111  10.1757278
   6.2486005  -3.4278297  10.4854527 -25.5260792   7.7851934 -23.6536846
 -24.6240196   7.9218488 -23.3692913 -25.8191032   8.6341791 -24.0162773
  19.7493134 -33.6176262 -35.3033409  19.2362614 -33.9486313 -36.0487099
  20.3977852 -33.0734215 -35.8033638  -0.1544224 -40.1195068 -23.5411625
  -0.7701851 -40.5394630 -24.1830063   0.6866615 -40.0676231 -24.0705204
  15.8278418  25.3407879   7.7558599  16.3598690  24.6431866   8.0727301
  16.2308197  26.0998135   8.2059174  25.9840870  -9.0797033 -44.1304054
  25.1290741  -9.3938923 -43.9933243  26.3240547  -8.9291334 -43.2740555
  -1.4514951  -1.8769374 -44.8851128  -1.3190784  -2.8018987 -45.0170898
  -1.9657576  -1.6722504 -45.6910172  12.8482552  43.2835350  -4.4798074
  12.5769615  42.8339767  -3.6583316  13.6884222  42.8539963  -4.7689157
   3.9884892  -3.5073118  21.7940197   3.7991915  -3.8022518  22.7416439
   4.9826121  -3.4762049  21.8885803  -1.0600803 -10.1011829 -31.8727684
  -0.8521930 -10.6027145 -31.0821609  -0.2480675 -10.2060890 -32.4376106
  12.6555710  26.7677460 -28.1767254  13.3631363  27.4019508 -28.4146938
  13.1883850  26.0704746 -27.7953358 -17.2595673  -8.6223612 -14.8176785
 -16.5850677  -8.5327339 -14.1182728 -17.8673763  -7.9270463 -14.5484219
 -30.4744911 -14.9310036  -0.8839667 -30.8059673 -15.6161146  -0.3066487
 -29.8843269 -15.4819574  -1.4745965 -18.8110771   1.9571358  20.8228817
 -19.0778809   2.7513297  21.2220287 -18.3309021   2.2572491  20.0237541
  17.8639107 -27.7954311  38.2005272  18.5091724 -28.3245773  37.7211189
  17.0899181 -27.9712391  37.5880661 -17.0456448  10.0985956  25.7823219
 -16.2869854  10.3886356  26.3043575 -16.9580688  10.7425365  25.0127487
 -26.3064671  27.3948154 -24.4487133 -26.9089966  26.7223415 -24.7421608
 -26.7914658  28.2112503 -24.4868832 -39.9634552 -19.6341267 -17.4518833
 -40.6814232 -19.4847431 -18.1157341 -39.4957809 -18.7882996 -17.6371326
   1.1761812 -20.3287201  41.3457069   0.5016268 -20.6378746  40.7025986
   1.0909500 -20.8659534  42.1231422  33.7843590  23.3865414  -4.6205673
  33.1626968  22.7203445  -4.3006172  33.7962837  24.0467815  -3.9085252
  25.3532925 -28.3615913 -13.9211578  26.2617321 -28.3109837 -14.1666632
  24.8648796 -28.2284451 -14.7365713 -14.2526960   0.5672048   1.6270779
 -14.6510448  -0.2115237   1.2371209 -13.6358423   0.8569872   0.9492511
  30.0877075 -15.8381548  -0.2317791  29.1822014 -15.7470074   0.1477432
  30.0607185 -15.0639210  -0.8347889  11.7639627  14.0692282   3.0362666
  11.2460079  13.2362413   3.1352763  12.3917141  13.9385509   3.8072257
 -38.8926125  24.9578896   2.2665029 -38.9347687  25.3437862   3.1503408
 -39.7996788  24.8695068   2.0036712  -3.4009855 -39.4504967  16.2102432
  -3.2712379 -38.5846863  15.7504005  -2.9361274 -40.0377235  15.5730505
 -43.4574394   3.0300629  11.2848721 -43.9300690   2.2602022  11.7070045
 -44.0478325   3.2038529  10.5437222  23.8870487 -29.7149849 -12.0581350
  24.3020153 -29.1620979 -12.6849546  24.4784946 -29.5366001 -11.2604456
 -24.7176933 -40.5136795  -4.7278624 -24.1291618 -40.9993706  -5.3638535
 -25.4017181 -41.1693306  -4.5462961  -3.7028120 -18.2110653   7.3334651
  -3.5678637 -18.8477325   6.6218867  -4.3005376 -18.7698040   7.8928270
 -17.7320442  14.8661489 -22.8180714 -16.9353619  15.0649824 -22.3135700
 -17.4163189  14.9739075 -23.7674541  -4.6908011 -21.0510178  26.4924297
  -5.4448204 -21.1962547  27.1407948  -3.9880681 -21.5092373  26.9721298
   3.5232792 -23.7110500 -22.7729092   4.0323038 -24.5081062 -22.9319344
   3.4943402 -23.7182789 -21.7956104  -5.7285652 -31.5729942  21.2841988
  -6.5570698 -31.9731178  21.6807537  -6.0463133 -31.4580288  20.3677616
 -15.6251440  15.8265200 -21.4627380 -15.5565481  16.0389099 -20.5306149
 -15.6606922  16.6974926 -21.8596058   3.2263978  16.0501461  29.8705254
   2.9933062  15.2818384  30.3679714   2.6829619  16.7277374  30.2899342
  29.4689465  -2.6260407  24.4939117  30.1465836  -1.9752194  24.7144051
  29.3050632  -3.0954447  25.3024006  32.2137451 -34.8478050  15.9717302
  32.3176575 -34.0356216  16.6365700  31.9465542 -35.4892273  16.7495956
  20.0034885  32.0623093  -3.6740899  19.2064762  32.0914574  -4.2171216
  20.2308483  33.0104790  -3.6943572  -2.9970210  -6.6350083 -34.1654663
  -2.1835043  -6.9769831 -34.5487328  -2.6689703  -6.5037155 -33.2474823
  29.7223263  28.5644073 -18.6346378  29.9906845  29.3767357 -19.0945549
  29.9150925  27.8763943 -19.3049011   4.1174407  37.9957924   6.8001399
   4.1322827  38.3007774   7.7455740   4.6850138  37.2093430   6.9022388
  24.5070858 -19.3193207  19.7509155  24.3301182 -19.6408958  18.8606758
  23.7588253 -19.5813255  20.2562695  20.4173870  20.1089745  -3.3061411
  19.6758709  20.7430801  -3.4165540  20.7329655  20.0143089  -4.2181358
  10.6076956  29.8726807  25.9289627  10.4317846  30.8202171  25.9589634
   9.8494873  29.5590477  25.3870811 -38.2676201  11.0211029  -1.8671126
 -37.7895012  10.1357889  -1.7622958 -37.6516151  11.4739838  -2.4894295
   7.3923554  38.8913422  10.4027281   7.1340179  39.7844048  10.6229067
   6.4858556  38.5606956  10.1195202  41.3265839  -8.8575153   5.2889915
  41.7062378  -8.8487129   6.1470170  40.7680702  -9.6697245   5.3079934
 -32.3825493  19.8587551   1.8744227 -31.7276058  19.1687775   1.6108985
 -31.7274055  20.5707207   2.1810696  23.6631145  12.2139645 -10.3622952
  23.6005688  13.0520220 -10.8383026  24.6296310  12.0814610 -10.3477879
 -11.0656443 -44.0554276 -11.2504272 -11.7413454 -44.3505592 -11.9122000
 -10.4183798 -44.8064919 -11.3023701 -35.4867477   7.3991122  -3.4163599
 -35.6914062   6.4837570  -3.5714619 -35.8378944   7.8518429  -4.2183208
  20.9803162 -29.8864040   1.6974528  21.0458641 -30.5501022   0.9145138
  19.9776039 -29.7262363   1.5775524 -34.7040672 -25.0256500 -19.9519005
 -33.9661789 -24.7947292 -19.3372478 -34.9639091 -24.1134796 -20.1115723
 -13.9528322   0.5093842 -32.8902321 -13.9983997   0.7322270 -33.8120918
 -13.0543671   0.2844869 -32.7350693  21.0382710 -24.4591122  -4.1441727
  21.0735416 -24.3497372  -3.1926208  20.5613995 -23.6030865  -4.4040518
  -1.5697786  -9.8510389  40.9359627  -1.5914671  -9.0854197  40.3987846
  -1.9991435  -9.5823584  41.7690239  18.7030163  -9.8115091 -43.2205620
  19.6348305  -9.5486765 -42.9566727  18.1747589  -9.1656418 -42.6911430
  17.7556648 -27.2068825 -11.4861307  17.7004490 -28.1505737 -11.6935291
  18.4326096 -26.9470024 -12.1227942  10.1344252 -33.4361000 -32.3519669
  10.3976011 -34.3420563 -32.0717964  10.8032789 -33.2664719 -33.0582924
  17.6000099  24.8550415  17.5222073  17.6593971  23.9425430  17.8379116
  18.2173939  24.8295879  16.8087387  14.8724957  -6.3693690 -30.7827835
  14.5385427  -5.6978207 -30.1399708  14.7515202  -5.8619061 -31.5930195
 -27.2512589  26.6063995  18.1136475 -28.0831585  26.3836689  18.4408588
 -27.4388866  26.8813267  17.2080994   2.4490390  16.0772915 -35.7937927
   2.7373283  16.4623013 -36.6778793   1.7181215  15.5136604 -36.1191025
  33.0127678  -5.4999070 -22.9074154  33.8880348  -5.2795739 -23.2089462
  32.5149307  -4.6913385 -23.0396004   8.2681246 -40.2084579  10.3854542
   7.4397845 -40.2496185   9.8491497   8.1494274 -40.9630470  10.9955206
   0.6229903 -34.3189201 -29.3007069   0.2339319 -33.5987511 -28.8467865
   0.5504961 -35.0782051 -28.6473732 -35.0759087 -32.4445076  14.1739063
 -35.3158188 -32.1995468  13.2772408 -34.9402122 -33.3819962  14.0772648
  -2.4171672  23.2135906 -32.8108330  -2.2424855  23.2215080 -33.7070351
  -2.0796940  22.2909184 -32.5838013  34.0138321  21.0188427  14.3025894
  33.6799660  21.5520115  13.5021687  33.2485809  20.4102707  14.3824673
 -28.4514122 -30.9931641  20.3018951 -29.2320919 -31.5317554  20.0569572
 -27.7778893 -31.4851799  19.7856770  -8.1762981  -3.1531796  21.5229530
  -7.1979222  -3.0739446  21.5790291  -8.3602095  -3.1430013  22.5171356
 -17.8618011 -10.5516052 -35.6659012 -16.9036121 -10.3859234 -35.8065109
 -18.1794872  -9.7551718 -36.2028389   5.3865633 -26.3787041  24.4595108
   5.1257381 -25.9536400  25.3323193   6.0145736 -27.0019150  24.7105789
  -6.2477446  -8.9250488 -27.7340469  -6.3808265  -9.8526545 -28.0394402
  -6.7167788  -8.4972296 -28.4974918 -15.6517067  25.5775757 -42.6220741
 -16.3527622  25.8410950 -41.9582176 -15.7205057  26.3212891 -43.2206535
 -26.3572083  15.1889658  -1.0682098 -26.0445557  15.5658798  -1.9215161
 -27.1954556  14.7436943  -1.4710357   6.7258158  42.2175102  23.5957489
   5.9274654  42.5908318  23.1660290   7.3495393  42.9440689  23.5162277
 -16.9057217  15.4913139  47.6599274 -17.3207664  16.3302841  47.3600616
 -17.1025124  15.6044035  48.6156235  16.5759029  -5.0345621  28.3520203
  17.2419605  -4.7810545  27.6873951  16.5376320  -4.1412244  28.8018875
  27.3128166   8.5558548 -18.5306244  26.5936108   7.8090587 -18.4610081
  26.7515755   9.2808933 -18.9177132  42.7364807 -10.8562574 -10.2141609
  43.6524200 -11.0099649 -10.1204662  42.5936394 -10.6532698 -11.2069063
 -10.4778671   6.7246251 -43.5384521 -11.0469952   7.0288100 -42.7642441
 -11.1137218   7.0096111 -44.2322884   1.3942937  26.4957848 -33.0140877
   1.6295415  26.1918564 -32.1412010   2.1936893  26.1196499 -33.5171928
 -24.4331284   0.9625251   8.8718367 -25.0364742   1.7197655   8.7817497
 -23.5689659   1.2150215   8.6075764 -23.9332771  16.7392349 -12.6223793
 -23.2693005  16.2324448 -13.0837107 -24.7436485  16.4595318 -13.1007109
  -5.7114344 -27.3959274 -35.6466293  -5.5643387 -28.4139652 -35.6170731
  -5.9865470 -27.3349876 -36.5869179  25.1505356   0.4255937  38.1730957
  25.0755005   0.2479590  37.2211075  25.9274044  -0.0882937  38.3747520
  22.3500862  -2.3435397  46.1437645  22.8705215  -1.9016128  46.8298798
  23.1473808  -2.5457628  45.5217056  30.9308758 -22.8836651 -32.8734055
  30.9247837 -22.0515423 -32.4109612  29.9979095 -23.1230640 -32.9828262
   6.3131576  35.2242012 -26.1162148   6.8181753  35.8453178 -25.5346546
   7.0276957  34.7250328 -26.5716858 -18.6725998  23.4481030  14.7137232
 -18.5373821  22.6043701  14.2411432 -18.4058971  24.0876312  14.0779018
  14.0760670  -3.8180728 -15.4564753  14.7283278  -3.2304518 -15.9131460
  14.2085953  -4.6762733 -15.8846436  16.4268570 -27.3438129 -18.2573853
  16.2027359 -27.1805115 -19.1926842  16.5857944 -28.3291340 -18.2466316
 -20.7053223  37.2174339  25.2601757 -20.4729252  36.2782784  25.2071457
 -20.8032818  37.3341522  26.2157173   5.1163397  38.4313583  17.9236450
   5.4222269  37.7982597  17.2448177   5.8755097  39.0890388  17.8536816
  24.7206497  13.0118723  25.4985085  24.2412758  12.5630903  26.2586842
  25.1481266  13.7575874  26.0029049 -16.6634235   7.7174430 -35.7736931
 -16.8857422   7.5733380 -34.7866211 -16.7413921   6.7709827 -36.0556946
 -25.9744720  12.5085449 -35.7436638 -26.1340256  11.8230581 -36.4145584
 -25.1648121  12.1466284 -35.2748833 -43.7998161  -9.4679289  22.2462635
 -44.0483665  -8.7934723  21.6160545 -43.3813210 -10.1122227  21.5839539
 -27.8200722  13.2290163 -13.0336132 -27.1327515  12.6335325 -13.3560410
 -28.1946392  12.7037926 -12.3009176  36.3047752  -6.9898729   5.8920674
  37.2742043  -7.1061635   6.2006397  36.2800026  -7.6778679   5.1980844
   1.0825197  16.5374718 -13.1144037   0.1260846  16.8546619 -13.1204338
   0.9507540  15.6919861 -13.6410408  31.7742558  34.9178429  13.8431425
  32.5645180  34.3647919  13.7540131  31.1532631  34.5382843  13.1978502
 -33.9068375  32.8811340 -17.3919125 -34.7011642  32.3310966 -17.1640301
 -33.3878517  32.2106361 -17.8143826 -25.0116940 -32.1136932 -13.4955158
 -25.8775826 -31.7488365 -13.3135529 -24.5365944 -31.4118462 -13.9377680
   7.8809013  27.4562607 -18.4706650   6.9605494  27.2098999 -18.5605621
   8.0046310  27.1333351 -17.5324802  38.4007607  10.7825794  13.2541285
  38.4312515  10.0881252  13.9188700  38.4021759  11.5702572  13.8292675
   1.4611229 -15.6332455  -9.8813000   1.1640615 -16.1623173  -9.0931625
   0.7332897 -14.9524670  -9.8810730 -20.8974228 -11.9740162 -27.4684639
 -21.7638054 -11.9073172 -27.9055328 -20.9065247 -11.2244711 -26.8611145
 -21.4677906  -9.9909229 -16.7261829 -22.4517136  -9.9165249 -16.5305977
 -21.1343899  -9.1782513 -16.3146229  29.1032066  11.7955275 -33.5224380
  28.3084145  11.2090492 -33.4920769  29.8235264  11.1682615 -33.4199295
 -13.1371660  28.8770809  37.4721069 -13.4333410  29.7769890  37.3742256
 -12.1434898  28.9790134  37.4186287  -3.1270888  14.4833260 -12.2625093
  -2.3445945  14.1337337 -11.8476820  -3.4328558  13.6806364 -12.7297211
  -1.7499604  -6.1367159 -31.8607101  -1.6132333  -5.1360340 -31.8705597
  -1.6933239  -6.2805648 -30.9093227  23.7450161  43.1919060 -18.1073170
  22.9128838  43.0394897 -18.5686321  24.3279552  42.4334717 -18.5345516
   7.6815629  48.7124443  -9.5590143   7.1317964  49.5393028  -9.3885431
   8.0823240  48.5503654  -8.6569834  30.1951485  28.7752132  15.2870531
  29.9443130  27.9755211  14.7589350  30.8180084  29.2322903  14.7121477
  -9.6095247 -10.3294268  25.9464741  -9.8962994 -10.8665323  26.7237606
  -9.2912064 -10.9765425  25.3529530 -14.7335119 -42.1407890 -21.5444317
 -15.4453115 -41.6753349 -22.1470776 -14.2039080 -42.4933701 -22.3060322
  38.4696770  17.4811745 -28.3299274  38.1210518  17.6101456 -27.4463959
  37.7539139  16.9797115 -28.7585697  -4.5188022   5.0687394  48.3791428
  -5.0967546   5.1779137  49.1313896  -4.7303128   5.8727708  47.8206902
  44.2003593   1.6250557   8.9470053  43.4279404   1.1153303   9.2093763
  43.9111938   2.1042483   8.1576195  -3.8395097  -0.1298786  -6.6974330
  -4.0423393  -1.0092617  -7.0437059  -3.4106028   0.2241762  -7.5238161
  30.2404938  17.4916210 -29.2111111  29.8731899  16.7742958 -28.6254253
  31.1120758  17.1186161 -29.3512554  -3.9341228  -1.5077024  19.6945648
  -2.9632773  -1.5757504  19.7655544  -4.0936108  -1.7474371  18.7474766
   1.3725355   8.3124981  20.8490067   0.7345189   8.9205933  21.3496323
   1.9718834   8.0596724  21.5773563 -28.9272842   6.7964964 -44.4272575
 -29.4756756   7.5513382 -44.6344872 -29.0810299   6.7327514 -43.4651489
 -17.9813194  19.0181293  -2.3164454 -17.9007797  18.0832138  -2.4483297
 -18.6022224  19.0556164  -1.5741973  26.9912014 -22.2880611 -38.0827217
  26.0834541 -22.3389130 -37.7188873  27.4833679 -22.4115715 -37.2098694
  43.6178436  -0.2807114 -35.8322716  43.7795219  -0.4755869 -36.7847672
  44.2513695  -0.7406412 -35.3592834 -17.5456181 -15.8830576  33.4081917
 -18.0337372 -15.3862038  34.1252441 -17.7156677 -16.7950382  33.7161293
 -18.3290310  29.0580902 -18.4607716 -18.3418846  29.5558472 -19.3464642
 -17.4893780  28.6004181 -18.6057148 -28.0204449 -39.1775322 -13.0721636
 -27.8842487 -39.4636497 -12.1498785 -27.1548748 -39.4986916 -13.4246292
  -0.9876556 -13.6271191  38.8473167  -1.4792997 -14.4945316  38.7691116
  -1.7026621 -13.0932388  38.3710823   0.6133663  -9.6147776  25.1088905
   1.5150722  -9.4309845  25.4207401   0.6214712 -10.5994854  25.0949936
  -3.6154039  37.3212013  28.7482471  -3.3995326  37.4605827  27.7945156
  -4.4556704  36.8229980  28.7322235  18.3987179  42.5947800 -20.2299042
  18.7856197  42.5845795 -21.1737232  18.8167725  41.7373734 -19.8945255
 -28.3292122  28.2088470 -27.8915462 -28.8767757  28.9183254 -28.3338947
 -29.0920258  27.7359600 -27.3673496  12.3049269  -1.0503839  21.5192375
  13.2707005  -0.9458708  21.3541317  12.2362614  -1.9603200  21.9174366
  20.5765762  -7.2503147  31.9365673  19.7377758  -7.2070127  32.4652557
  20.1646423  -6.9995584  31.0644970 -19.3849659 -19.3620777  -7.0938787
 -19.1425648 -19.5994530  -6.1770205 -18.4642601 -19.1036682  -7.4606533
   0.0252285   5.7249870 -26.7437725  -0.4490724   6.5533528 -26.7503719
  -0.6362342   5.0554452 -26.8751659 -31.1118813 -23.5931206  20.6944542
 -30.7125206 -24.3787270  21.1402225 -31.4012814 -23.1053219  21.5216217
  37.9120903   6.1983066 -17.8326664  38.1702843   5.3983727 -17.3334198
  37.9510841   6.8808427 -17.1391659  39.3367081  31.4250641  16.8240223
  39.0219955  32.1612701  16.2993946  40.0806770  31.1065292  16.2661095
 -31.0907784 -17.1597424   6.7256565 -31.0667877 -18.1151562   6.4564524
 -30.1283684 -16.9455700   6.6475968   6.4756041 -26.6203117  12.9351988
   6.9350963 -27.3355522  12.4868526   6.0011258 -27.1690178  13.5991478
 -37.8220787   4.5525904  16.3852997 -36.7603989   4.5347176  16.3750057
 -37.9185028   3.6194174  16.7582970 -12.6503744   7.9293876  48.8405304
 -11.8565607   8.1727600  48.2905617 -12.3248796   7.6763887  49.6760597
 -21.3047142 -30.3923473  -1.0134348 -21.1243744 -29.5567150  -0.5282291
 -20.8866100 -30.0975952  -1.8872185   9.1942444 -20.8106136 -28.0453262
  10.1354408 -21.0001183 -27.8601265   9.2509565 -19.9847279 -28.5911045
 -24.7168751  -7.0758314 -25.6534672 -24.9876328  -7.8894258 -25.1658421
 -25.2023888  -7.1724863 -26.5021076   8.1510210 -29.8139229 -33.3314590
   7.7713175 -30.6434841 -32.8841591   9.0952101 -29.9153099 -33.0313225
 -12.8911076 -33.5488701  24.9306278 -13.1011448 -32.7474899  25.4779415
 -12.7400723 -34.2023315  25.6864777 -29.3364487  13.1748495  30.5991764
 -29.8252125  12.4762764  30.1026421 -29.0447826  13.7031879  29.7883148
 -26.3743744  14.2735443   8.2169161 -25.4931145  13.8411369   7.9596391
 -26.1253700  14.6575413   9.0689840 -10.2603426 -18.0245781   3.8097072
 -10.6561222 -17.9445667   4.7506251 -11.1006508 -18.2368240   3.3457532
 -10.8533039  21.8538246  16.4298725 -11.0885620  22.3979454  17.2848339
 -11.0627432  20.9568310  16.8552132   0.5701939 -13.2428474  -4.4273405
  -0.0618248 -13.9241972  -4.8294377   0.9263824 -13.8635254  -3.7269709
 -17.2738686   3.2107389  19.0051746 -16.8404217   3.7759013  19.6651402
 -16.5828762   3.0477929  18.3603439   3.2122769 -22.0209351  -2.9526887
   3.3612223 -21.1687527  -3.4224696   3.6529820 -21.8122158  -2.1285195
  -2.8727789  43.5224533 -18.0634613  -2.4536703  43.7998734 -17.2339211
  -2.1310101  43.6095276 -18.6933079  -8.5405817  38.6238556  13.2192163
  -8.6399679  39.5507126  12.8228550  -8.4440174  38.0403633  12.4506769
 -36.6629448  -3.4145098  27.3909264 -35.8417969  -3.4838324  26.8791199
 -37.3062172  -3.3128314  26.6448936   9.6077938 -33.5634804  -4.4097519
   8.9866638 -32.9541016  -4.8897104  10.4730501 -33.1533394  -4.6206326
 -25.4359188 -11.2206678  29.9163208 -24.7300758 -10.5680084  29.9386787
 -24.9578800 -12.0393620  30.0690937   7.2747512  40.6483192  27.3682461
   6.9965143  41.3793907  27.9696522   8.2339525  40.9541740  27.2716198
 -17.3225727  28.8690453 -11.5172195 -17.9663200  29.5383606 -11.0467243
 -17.0661755  29.4059200 -12.2735643  28.5921631  17.9248581 -14.0268679
  28.8640614  17.8547287 -14.9752254  28.2019672  17.0114994 -13.9453859
  14.1938314  46.1890259  -6.3902235  14.7011766  45.5206833  -6.8753142
  13.3859129  45.6166763  -6.2561469  -7.6709642  13.7248716 -28.8747501
  -7.9710002  14.6651745 -28.8195572  -6.9590425  13.7821321 -29.5932693
   9.0750074 -41.1775742   1.6501187   9.1164188 -42.0168114   2.1735559
   9.8723240 -41.3283730   1.0374938  -2.4654534 -26.8901062  -2.1504619
  -3.2473221 -27.4908619  -1.8933080  -1.8467495 -27.1022186  -1.5000190
 -12.4897661 -38.8963013  10.8114815 -12.9725552 -39.5655403  11.3828630
 -12.7411280 -39.2717590   9.9349709  24.0905590 -20.9433975  25.5006123
  24.4260902 -21.4855404  26.2853966  24.2285576 -21.6349964  24.8073215
  11.2345238 -23.2884693 -25.7275581  11.3000679 -22.7233925 -26.5748367
  11.7362003 -24.0724735 -26.0249672  -0.7490369 -24.3383484  -3.5936806
  -1.2270119 -25.1720257  -3.6416199   0.1203650 -24.6291161  -3.1112549
  26.5548801  -9.7433310  -6.0964136  27.2150421 -10.3040714  -6.6654782
  26.5432510  -8.9410286  -6.6794167 -11.9187164  34.9738693  28.4532852
 -12.4580088  34.1874504  28.5214100 -11.8646736  35.2440033  29.3949890
  38.4058800  -7.4745231 -12.1273727  38.6609383  -6.9520030 -12.8991795
  37.4729385  -7.6623044 -12.3947239  20.5928154   0.9216076  20.8523483
  20.9002037   0.3806984  21.6029339  20.4067936   0.3147233  20.1885662
  31.0409508 -24.2432537 -15.8878965  30.9004974 -25.2306347 -15.9528494
  30.5814457 -24.0518150 -15.0539522 -38.7539520  19.7526703 -27.1632195
 -38.4418945  20.4980602 -26.6124859 -39.5039139  20.1488152 -27.6375904
  -6.6332641  11.1901588 -31.1335030  -7.3701630  11.0924406 -30.5233631
  -6.6545010  10.3281584 -31.5888462 -29.4074802  23.3192463  -2.5600219
 -29.7653484  24.2572937  -2.7531087 -29.0975895  23.1631718  -3.4590185
  17.5541420 -31.8615742   8.5023289  17.3942032 -31.0203934   8.9949045
  17.8711224 -31.4089470   7.6237359 -34.9307632 -35.7593575  -2.9958401
 -34.5611992 -36.6136055  -3.0231483 -34.7144165 -35.4156609  -3.9111173
 -34.8552742 -26.3368568  22.7786083 -35.3698883 -25.5208111  22.7442627
 -34.0482864 -26.1069221  22.2738304 -32.4483795  30.6710224 -27.5438633
 -32.0540619  30.7128601 -28.4056225 -31.8059196  30.1382904 -27.0379143
  14.4092302   0.0989925  -8.9302435  14.1113958  -0.2471344  -8.0456820
  14.6862202  -0.7734413  -9.3382111 -23.4576149 -35.2810020 -15.7866802
 -23.6544838 -36.1551743 -16.2090721 -23.6752262 -35.5468025 -14.8290730
   9.3833714  -2.1256316 -23.9419155   9.7620411  -1.2426432 -24.0205421
   9.1567678  -2.2499893 -24.9085464 -35.9747849  33.6489792 -11.7721376
 -36.9055405  33.5787773 -11.4748621 -35.5344505  33.4043121 -10.9564266
 -28.8421040  29.2027321  27.5899143 -29.7341843  29.1926384  27.1761570
 -28.8246422  28.3530655  28.0450916  36.8605728 -24.7124557  -5.1825585
  37.0972252 -23.8049622  -5.4281049  37.7098465 -25.0268517  -4.8388243
  16.3982334   4.9215260  34.1372337  16.6779518   4.6878901  35.0084419
  16.9674454   5.7277188  33.9510345  23.5212784  -9.7998581  27.5858173
  22.7306824 -10.2721052  27.3639488  23.1480541  -8.8788433  27.4182644
 -17.4551735 -36.3334618  -1.3791574 -18.1365700 -36.0837479  -0.6510547
 -16.6768303 -35.8638687  -0.9997870  41.0856209 -26.7508965  22.6283207
  40.8451004 -25.7544365  22.5946960  42.0557365 -26.6022911  22.7286072
   5.4245796  -1.2601234  16.7636070   6.0174675  -1.7862371  17.4161396
   6.1717930  -0.8144180  16.3000317  -3.9813092  24.0477886  22.3172874
  -3.9730206  23.5739117  21.4695644  -3.8891532  24.9699402  21.9792538
 -27.1217098 -35.8879318  12.3025351 -26.3274307 -35.4217987  12.5813618
 -27.6105633 -36.0281372  13.1293831 -26.7247372  10.6522064 -18.1301098
 -26.6802025   9.8126574 -18.6443291 -25.8087063  10.7494926 -17.8922749
 -14.0637455  34.9834061 -38.4659157 -14.7673855  35.5337601 -37.9588394
 -13.2660303  35.3696365 -38.0293846 -14.4642916   0.1617477  -3.0637336
 -15.2358646   0.7550752  -2.8641922 -14.5069714  -0.4546359  -2.3492787
  -3.9986486 -14.8406563 -10.7718086  -4.8526120 -15.3130121 -10.6289730
  -4.2223978 -13.9132452 -10.6244259   5.5740514 -17.6315269 -22.1862907
   5.7108879 -16.7028675 -22.5826263   6.4702473 -18.0116310 -22.2803268
  42.7004089  -9.5014982   7.6049047  42.6084328  -9.6231833   8.5781555
  43.3518677 -10.2159681   7.4582987  -7.4670563   7.1407709  30.4055099
  -7.3110890   7.7186613  31.1976604  -7.1846776   6.2907147  30.7852764
  32.2378197   8.6930637 -17.2704926  31.2666054   8.5164652 -17.1864090
  32.2989960   9.5353546 -16.6776924  41.3807907 -15.5855656  15.2537594
  41.6710434 -14.7765989  15.7313137  41.4382172 -15.3045139  14.3432608
   2.1890130   9.2513695  -8.2333908   2.4856291   9.4724894  -9.0978489
   2.6088645   8.3802233  -8.1108475  14.2969494 -40.6110191   3.2493052
  14.4095650 -39.7124786   3.5397806  14.3964767 -41.1077156   4.1046023
  -9.5004988 -14.2997637  16.3779869  -9.6639719 -15.0642624  15.7888737
  -9.7413359 -14.7065802  17.2360954 -36.8655663  16.0318623  26.4285450
 -36.4856300  15.4919252  25.7032776 -36.4358902  16.8599682  26.3179531
   9.2686939 -42.2876091   7.3910489   9.1811447 -42.4912186   6.4793019
   8.3741398 -42.5181084   7.7524714 -14.8976021  -9.9138184  30.8414097
 -14.2546291 -10.0504179  31.5845089 -15.4318886 -10.7208128  30.8994122
 -19.8405399  17.9819107  23.1640415 -18.9961567  18.0893555  23.4754086
 -20.4752712  18.4768867  23.6044426  13.5845385   3.3479357 -19.1063213
  13.8609209   3.0244970 -18.2787914  13.0508442   2.5911837 -19.4188671
  12.8326845  -1.5930077  43.3082657  12.6190815  -2.5614123  43.3207932
  12.2381506  -1.2862176  43.9970627  26.3216801   9.9233246 -31.8880634
  25.4086685   9.5823317 -31.7679901  26.3402996  10.5835199 -31.1224327
  12.1672115 -27.0861092  17.7391796  12.8280067 -27.2519588  18.4253769
  11.3996754 -26.7931442  18.1925716  23.6381741 -15.2101183  20.3854866
  24.1715851 -15.7855110  20.9879799  22.6978931 -15.4415131  20.7302437
  31.5784454  18.1380825  22.1915302  30.7124062  18.4078140  22.5322189
  31.3969593  17.2175236  21.8893909  -0.2475624  39.4390106  29.0195961
   0.1025588  38.5380707  29.1139317   0.4000006  39.9086990  29.5627041
  28.8325214  12.5340071 -11.4112244  29.5734138  12.3401203 -12.0596590
  28.8208752  11.8032007 -10.8160381 -40.9382973  -9.9755459  16.7738571
 -40.2941017  -9.2730694  16.5147839 -40.8336868 -10.6553926  16.0701084
 -21.8888798  -6.3037977  -1.8401635 -21.4477139  -6.8569679  -2.5391998
 -22.2578487  -7.0884104  -1.3216321 -28.6663685  16.8598213 -14.7717562
 -28.6187553  17.6268559 -14.1489210 -29.5960655  16.8718224 -15.0403166
   3.4857020  39.1078339  26.0045967   3.5300305  39.9399185  25.5248566
   2.9765165  38.5352325  25.4172421  30.9959850 -21.5400295  29.6540527
  30.0537758 -21.7459450  29.6399860  31.0232182 -20.7577171  29.0576038
 -12.9889946  -1.9964263 -20.7021313 -13.0350103  -1.2611865 -20.0358467
 -12.5308609  -1.5460142 -21.4019814 -30.0178452  27.3381939 -11.0937128
 -29.0548992  27.2662907 -11.3639746 -29.8713226  27.5783920 -10.1892319
 -15.4168711 -46.0972977  -8.8839951 -14.7856884 -45.3550034  -8.6852932
 -15.5545568 -46.4694672  -7.9800234 -31.9475956 -26.2431107  -0.5679720
 -32.7971268 -26.4263706  -0.1322627 -32.0675659 -25.2455997  -0.6676803
  28.8502808  -0.3578229  -0.4201055  28.2213459  -0.1083665  -1.0988604
  29.6709232  -0.3783536  -0.9246243  33.6832428  -3.0110934  29.8866882
  34.1022301  -2.7582922  29.0348778  32.7696190  -3.2428217  29.5751629
  25.9861832   0.4077522  14.3232450  25.9674644   1.1665432  13.8400812
  25.1873150   0.3915392  14.8588181  -3.9050248  32.4791679 -17.9630661
  -4.1176867  33.3784218 -18.2028141  -3.3400652  32.6523895 -17.1724758
   1.3033986 -26.2618713   8.6319122   1.6557155 -25.7269135   7.8854523
   0.5676711 -26.7055893   8.1905823  43.7010155   0.3681559 -11.5514708
  44.6192245   0.2467554 -11.8720312  43.5937576  -0.3449139 -10.9228802
 -15.5061922  11.3090963  -4.8291922 -16.0942192  10.5137777  -4.9118838
 -14.9361715  11.0518675  -4.1067262   2.6160626  24.9343853   7.4947329
   2.2564700  24.1719513   8.0340490   3.0886569  25.4386177   8.1465321
 -20.6456432   1.5350779  22.9701309 -20.3725243   2.5107758  22.9556599
 -20.6035824   1.3484907  21.9960270 -22.1224461  18.0660038  20.3340149
 -21.9224586  18.8484669  20.9105186 -21.2777119  18.0960388  19.8314381
  24.0809669 -13.5697374   6.4091134  24.9006920 -13.8814888   6.7730641
  23.8138676 -14.2297993   5.7558599   8.2993517  -9.1513052  36.8555107
   8.6710119  -9.5110874  36.0313568   7.3617678  -9.0080700  36.6233482
  28.7628803   1.9733844   9.1632242  28.4363842   1.6215750   8.2730770
  28.8106117   1.1075215   9.6572866 -24.8138466 -27.5225487  22.4284916
 -25.7529087 -27.6077042  22.2357178 -24.5943165 -28.4067879  22.7010670
 -13.9110451   5.6864796   6.1782837 -14.2416391   5.1987677   5.4023776
 -13.8088923   6.5974636   5.9041824 -18.6472721  17.3759899  16.5679913
 -19.1114979  17.6742992  15.7200575 -18.1276913  16.5741882  16.1546993
  -0.6473603 -40.7312241 -20.8879738  -0.4773064 -41.6488266 -21.0016613
  -0.7059607 -40.5090408 -21.8672981 -32.9067039   7.7838316  27.9087715
 -32.0997162   8.0951357  28.4114799 -33.3663864   7.4046531  28.6272659
 -26.6327419 -34.2218552  -7.8226748 -26.8259010 -34.7340775  -8.5934124
 -27.1837788 -34.7065086  -7.1196194 -39.3412476  -8.0053396 -18.8384743
 -39.8971024  -7.2217937 -18.8201103 -38.8715820  -7.8926482 -19.6857910
  30.3882141   9.2892857 -33.5850296  31.0335503   8.7635174 -33.1253586
  30.7622681   9.3007336 -34.5075531   6.6212573  18.5179062  13.0021019
   7.5156131  18.6806240  12.6155024   6.8822370  18.1124477  13.8635693
  16.6923065  -9.2659264 -17.3922138  16.8064632  -8.8371658 -16.5661831
  16.5512276  -8.5472336 -18.0582409  14.3941450  18.5951233 -33.0463486
  14.3542929  19.4326286 -32.5756149  15.1133766  18.1545105 -32.6585922
  28.9627171 -11.7743092   2.7544141  28.2913151 -12.4760399   2.7488947
  28.3533478 -11.0743322   3.0985997  41.5677757 -20.0650520   0.3096862
  40.8002777 -20.6106606   0.2304793  41.6495247 -19.7364273  -0.6196530
  29.1817379  -3.1626763  -5.1548219  29.5490723  -3.8709192  -5.7466331
  28.6223335  -3.6835279  -4.5898919  -8.1831436  40.5902710   4.2106419
  -7.8342719  40.1444092   3.3669174  -7.4956017  41.3037033   4.2299838
  -5.1829515 -34.2173347 -17.6681461  -5.4244609 -34.1320877 -16.7211151
  -5.5611677 -35.1043053 -17.8913002 -20.5440140  14.3668976 -14.9638863
 -19.7072697  14.3385992 -15.4280233 -20.5890198  15.2881012 -14.6304560
  14.8400106 -14.5588989 -12.3894711  15.7011099 -14.9580135 -12.1163883
  14.7727909 -15.0028582 -13.2668276 -18.2476063 -49.7336006 -15.4076405
 -18.9557514 -49.1109314 -15.3994570 -17.7732487 -49.4971733 -14.5494223
 -16.9729595 -11.5623522  25.2526302 -16.9317265 -10.8473740  24.5656643
 -17.0915260 -12.3667526  24.6809139  15.7831068 -25.5563812   6.0351439
  16.1062069 -26.4527302   6.3579497  15.2080612 -25.7606735   5.2614040
   3.2394111 -17.8891144 -24.2353077   3.8744714 -18.4929867 -24.7208080
   3.5667834 -16.9973888 -24.4369087 -33.5783463 -27.2033787 -14.0238018
 -33.0913696 -26.9116211 -13.2205906 -32.9323730 -27.8414917 -14.3475866
  -9.3095694 -20.8019295 -11.5773258  -9.2165270 -20.7966862 -10.5595446
  -8.3722925 -20.9859982 -11.8241177 -16.0153618   5.6511874   1.2100067
 -15.7897720   4.8655400   1.7861501 -16.4597855   5.2076139   0.4391758
  -4.9257545 -25.3999958  17.5112267  -5.1080828 -24.6232891  18.1244774
  -5.8539648 -25.6728992  17.4053383  18.8678017 -21.9827442  20.3341446
  18.3822975 -21.7664356  21.2079754  18.0388832 -21.9770527  19.7876625
 -16.0967102  19.7286682  39.1744919 -15.6742630  18.9417648  38.7608604
 -15.3118811  20.1787167  39.4894104 -21.1105423  29.2177448  -3.3652096
 -22.0603180  29.0128880  -3.2085273 -21.1759319  29.5237141  -4.3014150
  38.4578972 -15.4582396  13.5905676  39.2842827 -15.1370268  13.0972319
  37.8755646 -14.7290678  13.3919735 -20.8172321  -8.3986197  10.1254883
 -20.4520111  -8.8306217  10.9183474 -20.4209728  -8.9317150   9.4285727
 -23.2823067  31.0472317 -16.5337353 -23.9365005  31.0336018 -17.2833557
 -23.7014198  30.3919430 -15.8979130 -13.2941484  24.3246841  20.4915123
 -13.8694401  25.1345615  20.3512516 -12.5687494  24.6761608  21.0719376
  -3.4450202 -46.4889374   8.3144131  -3.2622638 -46.4943275   9.2849083
  -4.4474716 -46.4958344   8.3555059  31.8920555 -12.8664131  -3.6677778
  32.7765045 -12.8667946  -3.1852977  32.0270195 -13.6773720  -4.2634721
 -25.8296986  26.6516018 -18.6027794 -26.2521591  27.2905350 -18.0102482
 -24.9652672  27.0774803 -18.7801132  18.4964104  14.1123314   8.5277262
  17.9179497  13.8352575   7.7719035  19.4048367  14.1196833   8.1234236
  17.5635986  44.6503868  -5.4871283  18.1703243  45.2310143  -6.0022254
  17.1833916  45.3454628  -4.8960428  -0.2725092  32.8623123  10.0391426
  -0.9549538  32.1898918  10.3784056   0.3118033  32.1832924   9.6118965
  26.8871040  39.5867310  -4.3001041  27.1828117  39.7495956  -5.2037311
  26.4268894  40.4178085  -4.1165156  24.3160439 -26.0022240  21.5363426
  23.8024082 -26.7123890  21.1672344  24.2461052 -26.1306992  22.4625645
 -24.7809086 -39.0968819  -0.5666246 -25.4987679 -39.8381233  -0.5175403
 -24.2918072 -39.5354919  -1.2903131  30.5628490   1.0228066  30.5721226
  30.7531605   0.3821805  29.8497124  31.2873363   0.8064285  31.1553459
  -1.6682349  -3.7419944  -8.6544638  -2.3627632  -4.0783892  -8.0307083
  -0.9057731  -3.9845271  -8.1319609  37.9486389  17.9803295  20.2483635
  38.3137436  17.0815258  20.0800743  37.0168304  17.8134899  20.0600986
  11.0483141  12.3682489  30.7060356  11.1058912  13.3185520  30.3369427
  10.0470371  12.3803625  30.8795147 -39.1424294   0.8734113  24.4561920
 -39.7419319   1.1601603  25.2345581 -39.0132523   1.8004465  24.1288223
  -4.4389229 -34.4631004  13.9042530  -4.6004953 -33.7877998  13.1571474
  -3.9232244 -33.8767853  14.4851990 -17.5520649  26.3952045 -41.0265617
 -18.4704647  26.6220398 -41.2783012 -17.5023499  27.0431900 -40.2814636
  40.4932289  -7.9633746  32.8433571  40.1294022  -7.3230147  32.2442245
  41.2539406  -8.3147326  32.3122559 -25.3320560  -5.0214829 -21.0532017
 -24.9080219  -4.4177842 -21.5690594 -24.8658924  -5.8745394 -21.3452587
  33.9477539   4.0354409  15.8475218  32.9611702   4.0734167  15.7876015
  34.0574036   3.2938025  16.4912891  18.3893871  46.4954605 -11.3923130
  19.1102734  45.9814453 -11.0473728  18.6552010  46.7470093 -12.3012075
 -23.6751423 -40.3276901  19.9668331 -23.5061493 -40.1984406  19.0400772
 -24.0998707 -41.2106285  19.9806366  -2.3772426 -37.6533508  -2.8915608
  -1.5569111 -38.0333710  -3.2805653  -2.8110740 -37.2895737  -3.7145133
   4.2612305  -0.2338185  -9.0972052   4.8612647  -1.0901563  -9.0677996
   4.7919521   0.2642544  -8.4287491 -35.8311272 -37.5732269 -13.9333820
 -35.0505638 -36.9971199 -13.9624338 -35.5236626 -38.2540627 -14.5686493
   5.9190907 -22.4075203  24.0368271   5.5795064 -22.5402298  24.9239712
   5.8035536 -21.4227409  23.9474163 -38.9358521  -8.2361679  16.1053658
 -38.6029282  -8.0288534  15.2062302 -38.6651764  -7.3977828  16.5717583
  23.1388874 -11.2214251   7.7820072  23.5023575 -11.9470596   7.3013215
  23.6471214 -10.4484997   7.4655437  16.3292542  16.6565666  28.4005814
  17.0845318  17.0378170  27.9409580  16.6269264  16.7860336  29.3359699
  -3.9635680  -3.0833869 -28.0435143  -4.7033172  -2.4794726 -28.1827354
  -3.6582963  -3.1832731 -28.9715023 -33.8927383   7.1087012 -36.6920776
 -33.4339333   6.7015600 -37.5113907 -33.2412262   6.7579851 -36.0500717
  15.3874521 -16.9348450  38.1600113  16.1789093 -17.4959011  38.0933533
  15.7344360 -16.0883617  37.8825874  36.1466064 -15.3204136 -13.4676294
  36.0975800 -16.3128014 -13.4954605  35.2569733 -15.0938311 -13.7609262
  32.0170212  -3.1696627 -37.7492828  31.2091293  -2.6204822 -37.4858513
  31.5589733  -3.5478530 -38.5817757  -4.9270186 -17.8982601 -24.0821018
  -5.8489847 -17.6598549 -24.0450687  -4.9109440 -18.8209991 -24.1628017
  -3.7730372   5.9042926 -25.8834038  -3.7992904   6.6283321 -25.2116623
  -3.2248821   5.2205844 -25.4604454 -26.2159729  21.2621155  36.7986069
 -26.1182976  22.1714058  36.3985214 -25.5179520  21.3110924  37.4514275
 -16.2111053   2.6973572 -13.4973764 -16.4197006   1.7097293 -13.5027905
 -15.4167404   2.7400708 -13.0594530  21.0981731 -15.4462786  26.5598278
  20.6495934 -16.1282196  27.0132446  21.7867203 -15.9247284  26.0594139
  -0.0049194 -47.2300568  10.5583677  -0.2538611 -46.3549461  10.7525702
   0.2672308 -47.5968285  11.4507084  -0.7689582  14.2306232  25.5963326
  -1.1936948  14.8933153  24.9784794  -1.3078716  13.4267759  25.3091564
  13.6638994  39.8482285  -9.7816219  14.1958189  39.4237900 -10.5031786
  12.7933493  39.8426170 -10.2975531  13.1760111 -24.7825165 -44.6323929
  12.1809711 -24.6902351 -44.8790359  13.1159430 -24.4792919 -43.7189140
  -2.2538264  16.4146805  17.8825130  -2.1083527  17.1198254  18.5525417
  -2.7503252  15.7693729  18.3999557  15.9074268  -8.3300400 -48.8991508
  15.6354570  -9.2822018 -48.5920410  16.8405399  -8.5055046 -49.0401497
 -25.6237526  18.9005375 -12.9902630 -24.7947540  18.4775791 -12.7610407
 -25.6360950  18.8242207 -13.9403677  -5.5094008  -0.2067484  47.3210678
  -5.1030374   0.5525811  46.8578110  -5.1057477  -0.0499447  48.2137871
   6.6366000 -21.3102989  -2.3650413   6.5918674 -22.0620670  -2.9160118
   5.9202547 -21.4311333  -1.6770551 -30.6995869   6.4267502   0.8978096
 -30.8154011   6.9093490   0.0640796 -29.8704777   6.9191918   1.1554959
  33.4669418  31.0944195   7.4098687  32.8657990  31.8876781   7.3297997
  34.2490921  31.5281334   7.8454781 -44.3237381 -25.5588684   7.0943608
 -43.4427185 -25.1652317   6.9624066 -44.8973198 -24.7831936   6.9253020
  30.9368973  27.7471352  -5.2684388  30.1098099  27.5181713  -5.7124586
  31.0593548  26.9680576  -4.6895790   4.7923727  18.6733818  38.2873688
   4.8126769  18.9336433  39.2576942   4.2210102  19.4321766  37.9922409
 -21.9037418  37.8030052  21.7377605 -21.1912861  37.3340645  21.2848282
 -21.9402809  38.5717926  21.1256695   4.2392001   9.4290237 -27.4827557
   4.1818352  10.3147335 -27.0501690   4.7252064   9.6774645 -28.2827206
 -37.7369156 -35.8805351  15.4055490 -36.9544830 -35.7107887  15.9036798
 -37.7423935 -35.0888710  14.7859192 -23.2433510  19.7985344  -1.9319469
 -23.0652714  19.1047039  -1.2333139 -22.4957390  20.4476776  -1.5656294
 -18.4955940 -17.8434982 -32.1635895 -18.3066368 -18.3523350 -31.2992935
 -18.9925098 -18.4993534 -32.6947174   0.3158208  -7.7071257 -45.1846161
  -0.0871803  -6.9764876 -44.7821274   0.4676386  -8.2819834 -44.4160805
 -22.2751236 -43.4966431  -7.8636084 -21.7475471 -44.3800774  -7.9593105
 -21.7781830 -42.9581223  -8.5223742  -1.3904915  15.0819559  30.2467327
  -1.0613565  15.0497351  29.3274708  -2.3328826  15.2017946  30.0187912
  16.5235634  -8.6759815  25.8751755  16.0919132  -7.9661140  26.4721622
  16.7426224  -9.3277979  26.5717602 -16.5815372  14.4738970  37.7885017
 -16.3949223  14.5848742  36.8720512 -17.2715759  15.2125330  37.8666878
 -28.1195393  33.9732933  19.0096512 -27.2440414  34.2812462  19.2033577
 -28.1680775  33.1390038  19.5447998  -6.4470916  -6.3781996  45.2537918
  -7.3053613  -5.9875503  45.1017418  -5.9814234  -5.4924283  45.5265045
 -43.9365273  31.5857220  10.8731461 -43.0458145  31.5799446  11.2643042
 -43.7102852  31.5590630   9.9383631  24.7081833  -7.1676698  39.0069237
  23.9197903  -6.5823488  39.0016289  24.3292370  -7.9426885  39.5249825
 -23.9236736  28.5680161  -2.7986789 -24.7498703  28.0120125  -2.8049638
 -24.1097107  29.1820984  -3.4627130   1.7106230 -10.5334816  44.4203300
   1.9391193  -9.7010403  43.9902382   1.7020307 -11.1534624  43.6795883
 -20.9756050  26.0142365  -9.1587372 -21.2718029  26.9306202  -8.9797459
 -21.3321514  25.5023460  -8.3962221  21.2285748  -9.5072908 -42.4438095
  22.0690746  -9.7859688 -42.9058647  21.5354481  -9.6530008 -41.5073662
 -29.8485909 -40.0456047 -18.5030460 -30.4828758 -39.8241005 -17.7688313
 -29.1100121 -40.4350471 -17.9059353  -8.3419189  16.3560905  16.1286659
  -7.3770695  16.4272823  16.3237438  -8.3565216  15.3809853  15.9548798
  24.2849979  37.1812820  -7.0977035  24.3904209  37.8132362  -7.8631959
  23.5536823  36.7104454  -7.5001035 -15.5175009  10.2094622  40.0475235
 -16.2364140   9.9095278  39.4865570 -14.8672419   9.4910297  39.9459152
  -7.6400218  -0.4564717  38.2256126  -7.2177687   0.1050758  38.8615532
  -7.3011546  -1.3364180  38.3690872   3.5001326   8.5623798  -3.0246906
   2.6209011   8.8618193  -3.2737665   3.5660346   7.7759757  -3.6120751
  25.7750568   3.0259490 -24.6415405  26.6387386   2.9929798 -24.1652241
  25.3562851   2.2360003 -24.1696358  -4.3885169  13.0683413  30.1038761
  -4.0009589  13.4469013  30.9654026  -5.3206372  13.3431492  30.2264080
  28.2202034 -22.0361843  30.1791096  27.4745216 -21.4719791  30.4670486
  27.7194214 -22.7224236  29.6509647 -13.5775785  26.2214584  30.9588127
 -14.4712734  26.3930359  30.6180687 -13.1523228  27.0895977  30.6670952
  14.9222822   2.4604752  11.2382450  15.5294666   2.2263308  10.5474014
  15.2393255   3.2711971  11.6201029  -8.7000713  -2.7486796 -44.0564880
  -9.6230984  -3.1173027 -44.2134933  -8.1467600  -3.5052154 -44.3439331
 -17.3696899 -36.2858124 -13.7437878 -16.9435501 -36.8125839 -14.4435339
 -16.9515934 -35.4143639 -13.9493942 -17.6150761 -10.1291857 -19.7736549
 -18.4416847  -9.6648493 -19.6114597 -17.5250664 -10.6756163 -18.9703064
  18.5102406  -2.9842827 -17.3013115  17.9427357  -3.7482421 -17.4755173
  18.7712231  -3.2017772 -16.3934383   9.7700891 -25.1033401  19.0141163
   9.7028065 -24.5601768  18.2132778   8.8500185 -24.9963436  19.3180084
 -38.5900612  15.0480852  31.8607788 -37.9947510  14.4411640  31.3387280
 -38.8051796  15.7837791  31.2413235   2.8826954  27.4073219 -20.3917866
   2.7936573  28.3239899 -19.9370003   2.6920214  26.9377441 -19.5843868
 -42.2248611  12.4711046   3.8118062 -42.8091545  11.8199873   4.2175908
 -41.9353943  12.9891739   4.6082773   0.7729840 -22.5921021 -22.2080441
   1.3230559 -23.2627068 -22.6830444  -0.0045049 -23.1831493 -21.9321537
   7.3661599  37.7203293 -10.0040607   7.6114092  36.7997513 -10.2861605
   6.9933653  37.6145477  -9.1312304   2.7851908 -13.1800451  30.0279980
   1.8940386 -12.9470215  30.3608055   2.7627120 -14.1251993  30.2384529
  -0.5287011   3.0248489  20.9663506  -1.2275908   3.5410793  21.4987373
   0.2762682   3.3976729  21.4187202  -7.9289341 -22.9806042   8.8952942
  -8.0922403 -22.0231075   8.8336782  -7.2218528 -22.9914360   9.6275997
  39.0394020  28.9875088  -2.4551761  38.3848457  28.9975452  -3.2590890
  38.4594460  29.5172749  -1.8479800 -14.9624214   4.5380602  13.9219656
 -15.5647993   5.1658072  13.4417124 -14.2731972   4.3972020  13.2373648
  10.8408031   7.4288988  13.0193129  10.9813738   6.7926292  12.2854910
  10.1498594   6.9661498  13.5481815  -5.2163692 -29.5440865   8.3212910
  -5.9938226 -28.9319592   8.4586439  -5.3112426 -29.7943439   7.3753057
 -21.1023216   8.3271074 -10.3925724 -21.0264397   8.8373423  -9.6027880
 -21.4116898   8.9144773 -11.0331936  24.5791359 -14.9087677 -30.1943302
  24.3750362 -15.6482592 -29.6246815  25.4230957 -15.2331285 -30.6048908
  38.0370750   7.3204541 -15.4285803  37.2132721   6.8123832 -15.1975384
  37.7047729   8.2127371 -15.3651657   9.2149715  -6.9279957 -32.5856972
   9.7661686  -6.5853782 -33.3589401   9.4373140  -6.0850811 -31.9854393
  16.1113167  -2.4499369   9.4169912  16.0905285  -3.0619552   8.6560011
  15.5053110  -2.8814652  10.0188160   9.3129568 -28.8344154  19.4488697
   8.7491446 -28.1819496  18.9717369   8.7182446 -29.5673847  19.5383434
  38.9846458  27.4719868  -9.2492037  38.6232834  27.6471863  -8.4205570
  39.0346298  28.3694801  -9.6681147   9.5911789  23.4496231  17.8846455
   8.6976004  22.9916573  17.7305164   9.5209217  23.6439228  18.7882881
  35.6392403   1.0925926  -8.2563019  35.7074699   1.4885345  -7.3353853
  35.6112442   0.1183746  -7.8861489 -35.9184685  31.8168297 -16.3232632
 -35.9986229  32.3333282 -15.4832811 -36.8311996  31.8682613 -16.6175690
   4.2387214  30.4505672  -7.0669527   4.5786028  31.2374763  -7.5567789
   3.3811164  30.4045010  -7.4434423  38.3455009 -18.6099339   5.3904648
  38.9960175 -19.1252460   4.8466997  37.6639023 -18.4525394   4.7414942
  20.1122208 -13.2935534   3.1461370  19.2841911 -13.4877672   3.5138702
  20.0827904 -13.6993961   2.2265015 -29.9794922 -10.1957893   1.7752213
 -29.9482861 -10.9802475   1.2000263 -29.6179066  -9.5473833   1.0304500
 -15.9835300  27.2813282  34.1613235 -15.7643061  28.1531487  33.7019119
 -15.6936817  27.4936752  35.0665627 -21.0808506 -23.2977734  15.3087721
 -21.8667316 -23.6328869  14.8853502 -21.4185715 -23.2732792  16.2447472
  -0.7029289   8.0343094  12.7369204  -0.1960243   8.1352463  11.8957434
  -1.2987088   8.7872295  12.6385193  15.3164921   5.7960277 -23.1530838
  15.1811771   5.0793586 -22.4918442  15.3159618   5.2014956 -23.9196091
   7.0793171 -37.7253571  15.7790470   7.8294678 -38.0109978  15.2568874
   6.5389123 -37.3111839  15.0474329 -15.0087872  22.2235489  -1.3998846
 -15.3068352  21.4691563  -2.0037374 -14.3654041  22.6216145  -1.9663655
 -20.1466408 -36.8698006 -25.2915688 -19.2548389 -36.9110603 -24.8289089
 -20.7762852 -36.8932800 -24.5345001  -7.8903961  -8.1995020  -4.7439451
  -7.0407753  -8.5284786  -4.2581396  -8.1948271  -7.6300712  -4.0001035
   1.2504753   1.3225951  23.7119370   0.2773970   1.1176382  23.7944069
   1.3146991   2.1183870  24.2757740   4.8041019 -34.6308060  20.8674545
   4.7481799 -34.7845917  21.7809982   5.0955119 -35.5161057  20.4855709
 -10.4074688 -21.2740974  31.1681290  -9.5564260 -21.3828735  30.7520962
 -10.1387396 -21.3088512  32.0834846 -18.0048733  -3.7412620  40.1676025
 -17.2800446  -3.4590566  39.6119804 -18.5985489  -2.9594121  40.0754929
  -6.2949753   2.9176829  15.4208765  -5.6273375   3.5088174  14.9192581
  -6.5983191   3.6488259  16.0749741  13.2513514  23.2324657 -32.1870804
  12.8458881  23.3287640 -33.0883179  14.0638390  23.7973766 -32.4639740
  30.1204586  25.6289616 -23.8233566  29.9692726  26.2604752 -24.5640450
  29.2333012  25.4253254 -23.5477428 -15.0372658 -43.3743210  12.9546595
 -15.0741987 -43.5567322  13.9413643 -14.7027159 -44.2736778  12.6400204
 -43.3208809   6.6417427  22.1776505 -44.2367973   6.4578538  21.8676491
 -43.4207001   6.3913445  23.1403828 -13.2453547   1.9581654  38.1235886
 -13.7090206   1.2825125  38.7116318 -12.3547535   1.6979266  38.2088203
  -6.1198273 -33.1056175  32.7685890  -5.4098673 -33.6172600  32.2301826
  -6.7866387 -33.8167572  32.7058983   1.5862137  41.2547035 -10.4906998
   2.5142787  41.0414009 -10.6094875   1.7067500  41.8485565  -9.6708221
  25.0040169  11.6872387  15.5206232  25.4243546  11.0052176  16.1179562
  25.4120731  11.3835936  14.6601725  16.1584225 -12.9963465 -44.4360313
  16.8194427 -12.9230270 -43.7213631  15.2956476 -12.9764423 -43.9369545
   9.7837343 -13.5948124  40.2056351   9.8938675 -13.0253811  39.3909454
  10.3238688 -14.3658924  39.8902397  -4.2552567  25.8425770 -14.4505148
  -4.6725893  25.0886364 -13.9589663  -4.9778957  26.0978050 -15.0458288
  20.1441479  28.5166225 -13.0273247  19.6139240  28.4237366 -12.2430763
  20.5807476  27.6248016 -13.1002922 -40.5610161   8.9463072 -26.5856915
 -39.7945900   8.8662739 -26.0341892 -41.2214622   9.3609915 -25.9340096
 -31.0145855   3.1523871  29.8935032 -31.1359711   2.1441076  29.9147663
 -30.5091228   3.2879701  30.6952076  -4.4337134  22.1564236 -10.2256317
  -4.4069996  21.8832989  -9.2776041  -4.8118167  21.3466606 -10.6551895
  -0.2713928  45.0874252 -22.7764492  -0.3339055  44.1743546 -22.4541512
  -0.6045849  44.8856354 -23.7185440 -11.0026798  -0.9591449  27.2917614
 -11.1540680   0.0086081  27.2976475 -10.9640980  -1.0362756  28.2866783
  16.8187389  14.5387068  33.1474953  17.7628746  14.3952579  33.5312805
  16.3748837  14.7844553  34.0160484  -0.3713866 -25.0754013 -18.6865177
  -1.0882856 -24.3927212 -18.5988655  -0.3999631 -25.3314152 -19.6184425
  41.7363396  12.4183378  25.3488731  41.9313736  12.7944431  26.2315426
  40.9100418  12.8970814  25.1420021 -21.6746616   7.1434131  15.5450296
 -21.0013275   6.8450170  14.9382458 -22.2639217   7.6874070  14.9221601
  22.5232792 -38.0923538  -0.6547428  21.9851284 -38.1094856   0.1757380
  22.3296070 -37.1797981  -0.9160798 -11.0654287  -6.1745300  27.7299995
 -10.3264503  -6.7375131  27.7020931 -11.5803814  -6.4574685  26.9101276
   0.0887148 -20.1236382 -29.2252274  -0.6015766 -19.8961372 -28.5888424
   0.3181313 -21.0298882 -28.8760929 -30.0555859  -7.2017832 -23.7135067
 -29.4123745  -6.4936800 -23.4548092 -29.5921535  -7.6726689 -24.4218025
   2.6174014 -38.2702141   4.9098587   3.3777649 -38.0424156   5.5259385
   1.9085251 -37.6124992   5.2604642   0.1987767  13.4894371  -8.1473589
   0.0676289  14.3881588  -8.2011318   0.9719232  13.2802057  -8.6360817
 -41.0857048  12.9607449 -23.2395973 -40.8516083  12.5573778 -22.4048309
 -41.0882721  12.1623812 -23.8647652   8.0445795  19.6356564 -24.0959721
   8.9742584  19.9285545 -24.2986526   7.7524104  19.4297638 -25.0309067
  -0.3893945   6.3956685  14.7328138   0.4743300   6.7690849  15.0278940
  -0.6407372   7.1573343  14.1193228 -14.1572742  29.2469864   0.0695296
 -14.6797199  29.7003250   0.7202693 -14.5240488  29.5193005  -0.7687905
  -2.8207104   2.7976980  15.3889208  -2.9490910   3.5788486  16.0315762
  -2.3400953   2.2746150  16.0504208  19.6279430  18.6511326  29.7590942
  18.8414497  19.1405430  30.1164074  19.3711452  18.3813705  28.8746777
  20.9747238  13.3987284 -17.1220875  20.4555054  13.5087547 -16.2855167
  21.2794170  14.3969316 -17.1299877  28.6451187  27.2776356  19.2849369
  29.0859051  28.0536556  19.7494335  28.0378914  27.7315063  18.6856079
  16.2140026  32.0268478  10.3054199  15.8593140  31.2617893  10.7489777
  15.6450205  32.7219696  10.6876173 -31.1985931  15.9010429 -26.7910252
 -30.3717346  15.3737011 -26.9093285 -31.8341999  15.1841583 -26.4830723
   9.7137613  -6.7845826  48.1518059   9.4118929  -6.6277747  47.2409515
   9.1155825  -6.1159520  48.6131668  -8.8606787 -44.4900436  17.7249279
  -9.1097937 -43.7866631  18.4040890  -9.1550550 -45.2652092  18.3064880
   3.3953531  22.2072792  19.7372551   2.9175305  21.9803009  18.9118271
   3.9119813  23.0135574  19.4559708  27.0513649  -5.6720891 -17.3014908
  27.9075623  -5.5086913 -17.7061958  27.2793789  -6.0754619 -16.4549980
 -14.7741661  25.7166405 -38.9884834 -13.9544783  26.1280193 -39.3730774
 -15.2928610  25.5587463 -39.8314972   6.6176481  -2.6564734 -12.2832489
   6.5214667  -3.1608949 -11.4714022   5.8644667  -3.0661252 -12.8186331
   1.5923444   8.0007133   0.4976822   2.3983662   8.4849691   0.5952320
   1.2956468   7.9579039   1.4416596   6.2515874  -8.9372044  -9.9804087
   5.6991539  -9.5956564 -10.4940605   5.6528320  -8.1813974 -10.0366096
 -36.0849991 -33.8805122   1.5091569 -35.1829567 -33.8837051   1.8718196
 -36.0642242 -34.3751831   0.7123229   7.1529603  16.1876850  40.6503601
   7.3710303  16.1076775  39.6421471   7.6083570  17.0726242  40.7946472
  26.2946701  43.7468109 -11.1732397  27.2651539  43.8915825 -11.0901012
  25.9399128  44.5979080 -11.1670141 -12.2809277  30.2945538 -22.8399410
 -12.4668255  29.3079052 -22.6787319 -13.1526423  30.6218090 -22.4982166
 -10.6193409  -5.6935234  16.6426296 -10.6120024  -4.9491930  15.9216490
  -9.8265820  -5.4391184  17.1448002  31.5254974 -12.7093849   2.6269634
  31.4113026 -13.1440353   3.5349767  30.5687580 -12.4715633   2.5439384
   8.9862432 -28.6985168 -15.0755234   7.9877481 -28.8123150 -15.0064278
   9.0401869 -28.2947216 -15.9118586 -27.9052620  26.8399887   6.4042258
 -28.0081272  27.5788631   7.1047835 -28.3660622  27.3170719   5.7150612
   1.2569681 -37.9249573  -9.4354315   1.9032258 -38.3706055  -8.8103209
   0.8748514 -38.7831955  -9.8662233 -37.2645149  28.3090057  18.3658314
 -38.0479279  27.9687023  18.8372269 -37.1417122  27.5756741  17.7303925
   4.3057804 -17.4834385  17.3390560   3.4684269 -17.0279655  17.3922367
   4.1464648 -18.2004795  17.9939384 -40.7074127  14.2738323 -13.2000341
 -41.6855011  14.4229469 -13.1090784 -40.4847832  15.0960293 -13.7375288
 -14.8825264 -26.5147343  -9.3378086 -15.0532694 -27.3906231  -9.6923199
 -14.2065916 -26.1585655  -9.9899006  -7.8170733 -16.9577770 -23.1376839
  -7.9762516 -17.2502556 -22.2501144  -8.4162874 -16.1644974 -23.1510658
  14.9956894  22.9974747  10.7518930  14.6012497  23.1434746  11.6594172
  15.9416857  23.2192402  10.9469662  37.5239105  10.6771765  32.6432877
  36.9064140  10.4827433  33.3935013  36.8534508  11.2330112  32.1230927
 -11.4983368  10.5707464 -10.2167110 -11.9338531  11.4012232  -9.8686762
 -12.3341064  10.0857735 -10.2580252  -6.8257127 -18.4413891 -34.6444397
  -7.7830973 -18.6630058 -34.6417274  -6.7131329 -17.9360123 -35.4694977
 -16.7428131 -50.5515938  15.5579967 -16.9595108 -49.8906822  16.2913971
 -16.7157116 -49.9210396  14.8510513  25.8282967  18.6484337  22.6676483
  25.9037685  19.0027809  23.5779095  25.6994629  19.4497089  22.1983147
 -37.4581261  -2.6654050  15.0961723 -37.1256905  -1.7374045  15.3166246
 -37.3481941  -3.0508165  16.0391445  32.6240044   4.4216967 -20.9689808
  32.3100128   5.0040293 -20.2557793  31.8073711   4.5017896 -21.5734539
  24.2269669 -25.0727024  38.3924942  23.3189774 -25.3478642  38.1207466
  24.7631760 -25.1447525  37.6287384 -33.8344574  19.0120659  19.4744244
 -33.1674385  18.7408123  20.1188107 -33.4526863  18.5625000  18.6586857
  -5.4501557   8.0444012  14.2116728  -5.2216482   7.9897633  13.2832689
  -4.7132545   7.5340981  14.6428833   8.4261351  -2.3706148  -7.3361397
   8.3350210  -3.2656972  -6.9510880   8.4466801  -1.7729928  -6.5882778
   5.2728763 -18.3083782 -39.8855591   6.0242281 -17.8155537 -39.6088676
   4.9552088 -17.8045559 -40.5931549 -24.2721634  28.7097816 -19.0557804
 -23.7612514  28.6785164 -19.8576012 -24.4881210  29.6557579 -18.8909283
 -27.5816689  23.2577038 -23.2412453 -28.2902184  23.8703632 -23.5772038
 -27.2453899  23.8790188 -22.5284882  38.9045830 -20.9964943  16.6303673
  39.7771454 -21.2497005  16.4173450  38.5625954 -20.7406940  15.7068768
  -0.7718872   9.8009977 -45.0844574  -1.1877183  10.5727196 -45.5519066
  -1.4652911   9.1097431 -45.1752396  20.0358467 -27.4025116 -30.5506649
  20.2493191 -28.2545242 -30.1180248  20.9756165 -27.0372028 -30.5173740
 -18.2337379 -38.6314926 -20.2546616 -17.3052006 -38.5647545 -20.2076015
 -18.4785938 -37.9186745 -20.9163876  -9.7101622  17.3594952   8.1523142
  -9.5262203  16.5967903   7.5718427  -9.5054541  18.0676231   7.5170660
  31.0232887   3.4193096  16.1797409  30.6778946   2.6690450  15.6583366
  30.2050762   3.8589890  16.5382500  11.1864214 -13.0355787  24.4777908
  10.2474051 -12.8680353  24.2927876  11.2898178 -12.2983856  25.1620884
  -1.0828488  -2.0141037  19.7942142  -0.7546765  -1.1196328  19.7369347
  -0.3014759  -2.5697465  19.6071243  -0.1261820   0.0185302 -17.1890392
  -0.4549707   0.1178698 -18.1308270   0.2905343  -0.8396665 -17.2235298
  26.3893890  25.3378735  -6.3222885  25.9285583  25.3308372  -7.1869988
  26.0800915  26.0967178  -5.8715410  16.5167675  22.8129425  25.5359764
  17.2921429  22.8615360  26.1513233  16.4832039  23.7173233  25.2049446
  28.9507179   0.7523092 -27.7717571  29.2301311  -0.1406657 -28.0191784
  29.2856216   1.2947289 -28.4833660  24.5266762   7.2794204   0.5471512
  24.1400700   7.0389280   1.4125106  25.1135502   6.4578919   0.4966913
 -33.8030663  17.4436703  -2.9925296 -33.8629494  17.1144581  -3.9172740
 -34.3219948  18.2162247  -3.0623908  22.9621086  39.9067078   1.5390607
  22.6488743  40.5558968   2.1810262  23.6381168  39.4610748   2.0823894
  17.5917683  33.0395126   4.4939270  18.2023449  32.6248817   3.9358709
  16.7659492  32.6102753   4.3450961 -17.0560265 -22.1605911 -10.8613138
 -17.6114120 -21.8604889 -11.5854883 -17.6938992 -22.0286255 -10.1217613
 -30.5867252 -29.3282127  14.3751640 -30.1456528 -30.1858521  14.1817827
 -29.7746239 -28.7519016  14.3871040  25.8469124  39.5317917   2.6020081
  25.2603264  38.9019699   3.0239542  26.6035576  39.5920029   3.2385092
   7.0211296 -37.7206535   5.0698047   7.4754949 -37.8542213   4.1856937
   7.4891286 -36.8791008   5.3192301 -29.8023300  -7.9072161  26.5742989
 -29.0489750  -8.5062819  26.6004391 -30.4688778  -8.3565159  27.0703754
   4.5704803   9.0759964  32.8362923   3.8506737   9.7540302  32.6702614
   4.0766578   8.3884535  33.3120041 -30.2197533  -9.7801571  -8.4267397
 -31.1205082  -9.9803038  -8.0784731 -29.9007626 -10.6704149  -8.6007185
  -3.6045747  -4.0364919  23.6447277  -3.3276258  -3.4333780  24.3314457
  -4.5846162  -4.0476880  23.7644787  14.1902800  -3.6887655  46.3574066
  14.0879488  -3.4930413  45.4130859  14.4339094  -4.6844950  46.2582550
 -30.5842133  19.3510456 -33.5250664 -31.4045448  19.9205303 -33.6412277
 -30.9284382  18.7664700 -32.8342323  18.4580784 -29.7941818 -36.2361870
  17.6397934 -29.5050278 -35.7445755  18.1808567 -29.6992073 -37.1583176
  -0.6286834  -7.2906213 -35.4320679  -0.9046051  -7.9572587 -36.1546364
  -0.4299868  -6.5079608 -35.9757042  22.0730305 -35.2011147  26.7831631
  21.9033031 -35.8231812  26.0005054  21.2354202 -34.7120171  26.7439556
  42.6139069 -29.7874813  17.0902653  42.4180832 -28.8125267  17.0255775
  43.4307861 -29.7315483  17.6696091  21.2831993 -22.6130886  12.0886097
  20.5628090 -22.6279850  12.7219906  20.8411140 -23.0461063  11.2651997
   1.2399019   5.8244390  -1.4034748   0.5001317   5.1857166  -1.2473468
   1.0514309   6.4841928  -0.7467589 -19.1455708 -38.6373138 -14.0959854
 -18.7837734 -38.0522232 -13.4161673 -19.7334290 -38.0447540 -14.6330385
  25.7361240 -32.3579483  15.0045328  24.7871246 -32.4278374  15.2669401
  25.9696102 -31.5185070  15.4831915  14.9914427  -5.3208494 -46.6482391
  15.7202511  -5.1195250 -47.2447090  15.4775095  -5.4920683 -45.8453064
 -13.7197542 -31.4312305  -6.8212514 -13.9886103 -30.6610088  -6.1951427
 -13.6993465 -32.1949501  -6.2090139  31.3305855 -16.6809807  21.6469612
  31.9664383 -15.8912249  21.6018143  32.0577583 -17.3385353  21.9464283
 -39.7195358  -3.9426289  -5.1339035 -39.9445877  -3.4889274  -6.0138531
 -40.0337448  -3.1928303  -4.5662193   2.8258817 -12.0409346  42.0698891
   3.2695036 -12.6662531  41.4288406   1.9348029 -12.0721540  41.6640930
 -24.7740326 -38.2682724  16.7846718 -24.7223282 -38.2819481  15.7928009
 -24.0621643 -37.6180534  16.9600487 -19.1025219  -9.3155642 -33.2872581
 -18.9744301  -9.9887505 -34.0081024 -18.1630745  -9.3847857 -32.9616547
 -36.8993225  -1.3129103  32.2805710 -37.7637100  -1.6869318  32.1589890
 -36.3778572  -2.1696682  32.2425613  -2.2888939   9.9892540  41.2485428
  -1.7648258  10.6766958  40.7536736  -3.1495903  10.0942583  40.8145256
   1.6401296  27.7013035  20.1781998   0.7669814  27.4348679  19.7957401
   1.9672164  26.7472610  20.2592754  41.8745308   0.7228409  10.3757067
  41.2727356   0.9679042  11.1580839  41.2096405   0.3542609   9.7669868
  12.9215794  42.3525009   1.0549427  13.7599869  42.5567169   1.5816296
  12.3709049  43.0209084   1.5753131 -10.8133984  25.0055408   6.5100641
 -10.6106977  24.2584019   7.1146941 -10.0527039  25.0347118   5.8962135
  38.0364952  21.6995888  -2.9478054  37.6486626  22.0877209  -3.7432735
  37.6397705  22.3182068  -2.2756503  17.7973232 -33.9160347  -9.4228315
  18.6540756 -33.7886162  -8.9218388  18.1115532 -34.2495728 -10.2624464
   4.9065304  41.7418900 -22.1199207   4.9729872  42.1829300 -22.9959812
   5.6970434  41.1089325 -22.2807255  19.4962521  38.9966927  -5.1304989
  20.1871490  38.9388084  -5.8717070  20.0667515  38.8046989  -4.3591127
  20.1143303 -13.9246349 -28.1263409  20.5331707 -13.9674025 -29.0355148
  19.8813801 -14.8711987 -27.9878464   1.9356266 -43.0805168 -25.5187798
   2.0868158 -43.5969353 -26.3704319   1.0084002 -42.7805824 -25.6415787
  20.1273270 -25.6632805 -12.1604080  19.9106731 -25.1311646 -11.3370562
  20.8188953 -25.0839691 -12.5300455  14.3944941  15.5688410  -2.2353289
  13.5094805  15.1818180  -2.5036538  14.3190813  16.4491673  -2.6339295
 -15.1252384   3.9791565  46.8396378 -14.7814398   4.4409719  47.6585045
 -14.9789543   4.7600574  46.1797562  -1.8362514  -2.4456797 -26.4564266
  -2.5281482  -2.8615429 -27.0417080  -1.9724337  -2.9728842 -25.6568012
   9.8270388 -33.3228989 -13.4934273   9.5927591 -32.8103409 -12.7314548
   9.7144899 -32.5914574 -14.1755352 -11.8664207  15.4541864  24.9769039
 -11.6966114  14.5743542  25.4611835 -11.8552732  16.0587234  25.7815285
  20.1693287 -25.5025978   9.0363445  20.8684254 -26.1644421   8.9925356
  19.6534863 -25.6848621   8.2083387 -42.8804016 -10.9702215  20.1617966
 -43.7764740 -11.3130445  20.0809059 -42.3915482 -11.6868649  20.5502167
 -17.3967190   0.1811223  31.7079372 -17.4993038   1.0494703  31.2915840
 -18.2114201  -0.2563244  31.3320866 -23.7058182  -0.1929590 -37.3892860
 -23.4044724   0.4054469 -36.6438942 -23.9682083  -0.9541536 -36.8636627
 -34.3200722  22.5219193  16.1797962 -34.4491348  23.0204391  17.0052624
 -34.1454926  23.2989464  15.5823698 -21.8657646  16.8543186  29.7552738
 -21.3748035  17.7169476  29.8998756 -22.2489262  16.8126869  30.6690617
 -38.3427887 -17.9234200 -22.5586548 -38.1761894 -17.9532070 -23.5029202
 -37.7105370 -18.6397724 -22.2436562  35.8255501 -18.1527996 -10.4768562
  35.4786034 -18.8567810  -9.8812008  36.1771431 -17.5398273  -9.7863083
   0.6026269 -43.1291161  18.7525158   1.1278763 -42.2721977  18.7309647
   0.1498734 -43.0038261  19.6117363 -20.5349693 -17.0958061   5.3377452
 -21.1170979 -16.4992752   5.9023504 -21.0513344 -17.1950817   4.5505581
   5.6424627 -37.5952148 -11.5554314   5.9555774 -37.7332878 -12.4937601
   4.7322335 -37.3062096 -11.7253742  44.6351891   8.4463758   8.3707590
  43.6567307   8.5276585   8.0532532  44.7186852   9.3928728   8.7511816
   5.5541930  38.0662537 -23.4189644   6.0307937  37.2287483 -23.6669521
   4.7465973  37.7053299 -23.0741043  35.6691704  15.5158930   1.0798950
  35.5859642  15.0278492   1.9150599  34.9183044  16.1417942   1.2202573
  -5.8358498 -34.3780785 -28.4816990  -6.7952070 -34.2812614 -28.3908024
  -5.6888890 -34.0421371 -29.3830814 -42.0076332  23.0522270  -4.8072782
 -42.3447914  23.9213066  -5.0554180 -41.6779137  23.2172947  -3.8814921
 -19.0317097  -2.9733500 -31.8373547 -18.3512230  -3.4515367 -32.3540764
 -18.4207764  -2.3196597 -31.3977928 -10.5845423 -43.7807388  -2.1825397
 -10.1476116 -43.7212830  -1.4047182  -9.9214277 -44.0860443  -2.8151944
  14.8145199 -29.0036602 -37.4484253  15.5439453 -28.4653149 -37.1633377
  14.6219673 -29.5500774 -36.6625481  43.4067688  -8.7444849   3.7421629
  42.7331200  -8.8666210   4.4365387  44.1308060  -8.3065891   4.2287893
   8.9920759  23.9414616  -2.6501985   8.7654810  23.3750286  -1.8981434
   8.6263170  23.4269009  -3.3874588  -1.6911048  37.4319382  -6.6612434
  -1.3106444  37.0233574  -5.8104563  -2.5533032  37.6264992  -6.2199998
 -18.2196960  34.7394295 -14.9871778 -17.8757992  33.8643112 -14.6531096
 -18.3199825  35.2724571 -14.1478062 -30.0196877   1.7277049 -31.7453842
 -29.2469196   1.4142027 -32.2690353 -29.6661263   2.0840158 -30.9247360
  10.5716724  -8.4409151 -43.5474472  10.4698515  -7.6425204 -44.0696449
  11.3900928  -8.7784958 -44.0478935  34.1676140 -29.9881039  -8.3832235
  34.0330429 -30.9118652  -8.6414509  35.0807686 -30.0309486  -8.1590557
 -42.3800659  23.1626835  13.8108416 -41.9314537  23.1705418  14.6739130
 -42.5079460  22.2288589  13.6177931   9.1235008  -5.6669087  17.9206657
   9.8969975  -6.0761199  17.5801029   8.3874445  -6.1826181  17.5007553
  -0.0775849 -17.8757896   1.8590884   0.2551437 -17.0109940   1.6056098
   0.2111513 -18.4532051   1.1193197  12.5709486 -23.8332977 -35.5248718
  11.7411518 -24.0090485 -35.0263100  13.2133179 -23.8325062 -34.8078270
  14.2821608 -14.5273390 -22.9320831  14.5384626 -13.5978374 -23.0901203
  14.3622265 -14.9058723 -23.8438034  13.8292513  -6.6694093  39.4738197
  13.6119890  -6.3814287  38.5439873  14.4898319  -7.3542881  39.2072983
  24.6174202  34.4166298  -4.1263275  24.3625488  34.1469116  -3.1958976
  24.3113823  33.6108932  -4.5883269 -19.0990677 -11.0565519  17.1548672
 -18.4694920 -11.4375830  17.7897663 -19.8036880 -10.8291483  17.7928238
 -38.8795395  -4.8324132  24.3520908 -39.7897873  -4.7543597  24.1094551
 -38.7789764  -4.0975308  25.0541534 -13.7358446 -16.8059788  31.5368538
 -12.8675537 -17.3029671  31.3010101 -13.8833303 -17.3439178  32.3840561
  12.5478716   4.8645525  26.4323368  13.3246756   4.8188639  25.9103622
  12.0266991   4.1414247  26.1256790 -17.9034271  31.7493229  20.9531879
 -17.3906631  31.0043030  21.2167740 -17.4330044  32.5188675  21.2663212
 -39.1590195  -0.4541027 -25.2013664 -39.4029655  -1.3572085 -25.3959942
 -38.1726685  -0.4896678 -25.6105919 -14.7157335  23.1595669  45.0326157
 -15.3903131  22.7951088  44.4168091 -14.1913786  22.4211311  45.3076057
  -4.5938301   5.9071431 -17.7654057  -4.7638025   6.0337148 -18.7643337
  -5.3647695   6.3654041 -17.4383144  23.8554916 -24.4766388  -7.1129479
  23.0119610 -23.9846134  -6.9229188  23.5130711 -25.1875248  -7.6696553
   6.3559399 -17.7741089  -0.8876963   6.7224612 -17.7322865  -1.7820028
   6.8599529 -18.4826641  -0.4942476  15.9576187  -2.4211974  35.2699127
  16.8856430  -2.5810461  35.4170876  15.9501553  -1.7174886  34.5644341
 -19.2693100 -10.0229235  -9.7539129 -19.1019382 -10.9726076  -9.7396307
 -18.5001945  -9.7891264 -10.3707180  34.1888275  24.4536629  21.2612228
  34.8985710  25.0292206  20.9367847  34.6917496  23.7305870  21.6568890
 -32.3789444 -19.9534264  24.7018833 -31.8966637 -20.5744190  25.2387295
 -32.0320587 -19.1099987  25.0392933  -4.6575623  30.3883247 -35.9640198
  -4.4812794  30.1618214 -35.0682030  -3.7511821  30.4672508 -36.3424530
   0.9760309   4.6863375   4.2604437   1.8894436   4.6522017   4.5950136
   0.4399678   5.1253781   4.9317522  23.4269981  -8.4273281 -18.7439289
  22.7345963  -9.0024633 -19.0999298  23.7009010  -7.8601151 -19.4661884
 -36.1437836  -8.8465796 -24.1035995 -35.2590904  -8.9253855 -23.6832581
 -36.2279205  -7.8643627 -24.2328835  39.2501793   0.7670912 -34.2997513
  39.4988708   0.7781979 -33.3462982  38.2883034   0.8546091 -34.2744141
  35.1149750 -13.7091599 -23.9447041  34.6051559 -14.5076294 -23.7921658
  35.4215355 -13.5051041 -23.0159721  -3.1463389 -45.9574776  -7.4954538
  -2.8981235 -46.2847900  -8.3854551  -2.2438481 -45.5454407  -7.2300458
  -2.6245553  -8.3999996  43.5510483  -3.3989861  -8.0679178  44.0322075
  -2.1297188  -8.8407364  44.2775993 -16.3712978   7.0236320   4.3678608
 -16.3147449   6.1354108   4.0168900 -16.5068359   6.7248821   5.3085828
  15.1363564 -36.8934708  -9.0194931  14.9703178 -36.5217400  -9.9017868
  14.6859589 -36.2719803  -8.4886522  37.0094757  -2.6595700 -27.6894112
  36.4909630  -2.5005758 -26.8838329  36.6400719  -1.9121990 -28.2475128
   5.5997467  31.7887459   2.6762061   5.6562591  30.8209686   2.7252407
   5.7561994  31.8917542   1.6683265  -0.8589933  44.3688889  11.4672499
  -1.5531474  45.1104012  11.3426962  -0.7768102  44.3868103  12.4754372
 -14.4565248  18.2444992  44.3147736 -14.0591917  17.5181961  44.7921333
 -13.9931355  18.2384911  43.4499359  24.4080601 -18.3462009  24.0000439
  24.3857021 -19.1410751  24.5784950  24.9152756 -17.6928692  24.5843468
 -17.1518173   9.9514723   4.3100243 -18.0139465  10.1756763   4.7679844
 -17.2514668  10.5537806   3.5071857  17.9120846 -18.3362217  18.6345482
  18.7622051 -18.6111870  19.0379658  17.4475670 -17.9909592  19.3940296
  -4.3890576 -18.3457947  -3.4350855  -3.9523728 -17.8179665  -2.7594075
  -3.6682410 -18.9025326  -3.7927768   3.7296269 -42.2218857  -9.6510620
   4.5403109 -41.5837326  -9.5626097   3.7603748 -42.5185547  -8.6699133
 -36.2607002  15.0133419 -26.4985905 -36.8297882  15.7798424 -26.5908184
 -36.9485016  14.3129110 -26.4009953   1.2867782   8.5717306  35.8205032
   1.7702852   7.9836431  35.2120285   0.7258495   9.0504189  35.0869255
  29.2436199  29.4655247   4.6495056  28.4967461  29.5465508   4.0334382
  29.3725929  30.3952465   4.8410268 -30.7475910   3.1239128 -14.4025965
 -29.8813496   2.6492724 -14.3512716 -30.9544258   3.0144660 -13.4100409
  -3.5157325 -13.1092806 -20.7335567  -4.0188589 -13.0513897 -21.5801659
  -3.6829629 -12.2377138 -20.3593082  -9.6049604   3.7972147 -51.4038200
 -10.2252970   3.3197620 -50.8562546  -9.7534990   4.7415051 -51.0902481
   9.6003952  23.5835247  36.4033432   8.9351778  24.1655655  36.7281952
   9.4835138  23.6599960  35.4342041 -21.5360661  16.1515808 -26.1249542
 -21.2084236  17.0393333 -26.4420319 -21.5021057  15.6235828 -26.9983768
  14.6203537 -16.1439953   3.0267255  14.1138544 -16.8193302   2.4928401
  15.4923239 -16.3229809   2.7509539  -1.1499518 -33.9655876  19.0141850
  -0.5515668 -34.0179443  19.7729797  -2.0369430 -33.8054848  19.4865913
 -36.2126732  10.9530525 -28.6799507 -36.7246017  11.6358862 -28.2384262
 -35.3365669  11.3745680 -28.7456322 -20.2927570  34.9269371  26.8868256
 -21.1418438  35.0576057  27.3819408 -20.5786381  34.2859192  26.2492676
   4.1941128  -4.0285811   3.3329477   4.8782244  -3.6118991   2.8072715
   4.5082655  -4.9388299   3.4613855 -21.0620308   2.8351419   0.2602759
 -21.2725163   2.3367951  -0.5819684 -20.9689217   2.0524497   0.8424273
 -27.3080788  27.6360359 -11.7753649 -26.8090439  27.5822773 -10.9691877
 -26.8577805  26.8548698 -12.2610331  23.8714924 -24.9548492  10.9737329
  24.5206928 -25.5747166  11.4672203  23.0553722 -25.5301628  11.3033857
 -19.8232803   4.8150396  28.7262230 -19.1365757   4.2395720  28.9789124
 -19.6640434   5.0640268  27.8180103 -16.6793690   6.5304480  31.3087978
 -16.3832645   7.4636717  31.1624088 -17.2391224   6.4109354  30.5228825
 -44.0698814 -28.4861393 -14.5576429 -45.0245209 -28.6954155 -14.6166277
 -44.0426216 -27.6745739 -14.0413904 -22.3564510  21.1959229  23.4862442
 -22.0234966  20.5736427  24.2190781 -22.2677307  22.0609226  23.8832150
  13.3547297  50.0445290  17.0937977  14.1157618  50.6016464  17.2334347
  13.7734280  49.2387199  16.7151413  -9.4313908  41.3206024 -25.8784485
  -8.4876995  41.1349945 -26.0100689  -9.5554981  40.7480278 -25.0780525
 -10.5449810 -17.0479317 -11.5767527 -11.2288084 -17.5781536 -11.1007452
 -10.6966143 -17.3658695 -12.5205393 -26.0226936 -29.7835388 -26.6939201
 -25.6075535 -29.4513912 -27.5093307 -26.1367416 -28.8782558 -26.2575626
 -36.7451859 -11.5344524   1.8707380 -37.5948219 -11.9162607   1.5837201
 -36.7816582 -11.7205782   2.8562086  11.0765038  17.0111599 -23.0765591
  11.2944651  16.3498001 -22.3470917  11.5262232  17.8379822 -22.6963272
 -33.4139099  14.0076256  11.2692823 -32.4922829  13.8052702  10.8554535
 -33.5206108  14.9723606  10.9624805  20.8606415  46.2351875  -2.8332019
  21.4277344  45.9361916  -3.6020780  20.8614826  47.2075119  -2.8997154
  26.3622646  21.3289146  16.1945000  26.3359604  20.8078594  17.0276947
  26.4881344  20.6178513  15.5591507  -4.7252340   2.8535609  -1.8199877
  -3.9205711   2.7640703  -1.3059244  -4.4907179   2.5633452  -2.6906314
  -2.1415396 -23.8191795 -34.5770187  -2.5608640 -24.6282024 -34.9967270
  -1.1789323 -24.0746479 -34.6156006   8.9692669 -13.8654795 -12.3208094
   9.8546696 -13.8413410 -12.6757984   8.5720606 -14.5524778 -12.8552113
  -5.0926528  39.2291260  -1.9767261  -5.0450525  39.8949051  -1.2549399
  -5.9476657  39.4669952  -2.4173868   3.4652348  33.3442078   8.0578833
   4.4260645  33.1686249   7.9550309   3.4255245  33.9313354   8.7944298
  36.8773575  13.8791113  -5.8627777  36.9505157  14.7495985  -6.2243161
  36.0446167  13.9411430  -5.2971087 -41.4565239 -17.5152340  15.7625751
 -41.0589104 -16.6717186  16.0133209 -42.3451767 -17.4325790  16.1612663
 -34.8797836  19.3823566 -16.1833286 -35.2647438  20.1693764 -16.5525360
 -35.6152344  19.0835190 -15.5702190  21.9928570 -19.6578445 -40.2219849
  22.8384609 -20.0714207 -40.5669708  21.5023746 -19.7398014 -41.0466118
  12.7816572  16.0727310 -12.0177441  12.8603783  15.6394510 -11.0991116
  13.1712780  15.2815905 -12.4971666  15.1198654  -2.2288501  12.4862881
  14.8048906  -2.8363664  11.7584906  14.6288204  -1.3944300  12.1133757
  -7.0547519 -36.6028519   8.8530350  -7.6069994 -35.7772560   8.9138412
  -6.6408558 -36.5974426   9.7267466 -43.2316360  27.2007999 -21.4489841
 -42.3410301  27.0726986 -21.8306656 -43.7038231  26.4116287 -21.8696041
  -2.0338051 -16.6266422 -25.8064728  -1.6369091 -16.0694294 -26.4814262
  -2.7889552 -16.0981655 -25.5075035  22.9492893   1.7526941   0.4157444
  23.6508770   2.3955884   0.5404457  22.1428928   2.4047704   0.4005673
   2.1542964  17.1297798  34.0597305   1.6351898  16.6878071  33.3593483
   2.0096886  16.5430679  34.8087769 -17.1071548 -18.9392796   3.0747612
 -17.5362759 -18.5157890   3.8494394 -17.0546227 -18.1111126   2.4732769
   1.7676411 -43.0503273 -11.7250748   2.4765184 -42.8793449 -11.0719891
   1.8005491 -42.2574577 -12.2993269   1.2961729   5.2927732  47.9319763
   2.1545284   5.6698127  47.7009773   1.4094199   4.3615060  47.5442619
 -19.9655323  -2.2960041 -23.7215405 -20.9299412  -1.8861650 -23.6669598
 -20.0644398  -3.0256639 -23.1039524  20.3975563 -34.2865028  -8.7708960
  20.6816711 -35.1157875  -8.3622780  21.2877197 -33.8445778  -8.8022165
   5.9781952 -26.2068672 -28.7892418   5.1951981 -25.9693260 -28.2583313
   6.5771351 -25.4408646 -28.5687904  32.5449257  15.3211508  11.5501690
  33.0410576  14.6724520  12.1634932  33.3568306  15.7925797  11.2220144
   8.0521364  -1.1834663  33.7281151   8.9939709  -1.2928606  33.6805840
   7.9707594  -0.5790762  32.9935074  -3.3665955 -35.9126396   6.6502147
  -3.8904688 -35.0869179   6.8172474  -2.4448502 -35.6433487   6.9291482
  17.8065872  49.3299179 -15.4413214  17.9739151  49.8097000 -14.5756254
  16.8765259  49.0534592 -15.2096100 -29.6531792 -14.9240580 -18.0462780
 -29.6038990 -14.4812670 -18.9629707 -29.0785065 -15.6708803 -18.2846756
  43.2055931 -22.0884094   7.4866896  43.9126701 -21.9470272   6.7989712
  42.4880524 -21.6383801   6.9801579  19.2448349  17.8478565  -2.4038625
  19.4301033  18.8173370  -2.4939463  18.8353291  17.7472744  -3.3224583
 -34.8720245 -15.2283993  -7.8625374 -35.5560684 -15.7894840  -8.1923790
 -35.2992477 -14.3336239  -7.9329815 -11.2273521 -45.1412086   8.4965668
 -11.0150995 -44.5320778   9.2420826 -10.9605703 -44.5515785   7.7535133
  13.0824223 -16.0967808  -2.5768077  13.4202261 -16.8047752  -3.1774578
  13.6661949 -16.2602444  -1.7811916   6.0684209   3.6540844 -23.7455082
   6.8668537   3.5796027 -24.3457069   5.7183714   4.5415416 -23.9855442
 -15.2536335  14.8138580   8.9687481 -16.1563854  14.6278515   8.7997208
 -14.8105745  14.0777884   8.4999552 -18.5346375 -16.2764702  -8.4871283
 -17.8471184 -16.8626404  -8.3746910 -18.1778870 -15.5400867  -8.9700651
 -18.3313313 -41.9036522  10.9951162 -18.0554256 -41.9294128  11.9591179
 -17.5792046 -41.2997322  10.7155905 -12.4877434   6.6382751 -14.0561008
 -12.2356157   6.9023743 -13.1728153 -13.3644438   7.0887103 -14.1800337
  31.5005322 -28.4935932  15.2958431  32.3228149 -28.2941322  14.8091040
  31.9125347 -28.4884186  16.2181416 -12.4290295  26.5062885 -40.1048317
 -12.1898813  26.7597771 -40.9584312 -11.6016645  26.1783562 -39.7045288
  15.5633202   6.4540644  18.0675316  15.1522608   5.6487565  18.2994442
  15.3549318   6.5833654  17.1230068 -17.5726280  11.6206026 -22.5140972
 -16.9784489  11.1646118 -21.8706837 -17.3915043  12.5486689 -22.3290291
  -1.1406801 -31.8379211 -17.8893929  -1.3527083 -30.9409294 -18.2610111
  -1.9922928 -31.9700394 -17.4396648  30.5280609  10.9968596  -7.4725957
  30.5206203  11.7626429  -6.8478804  31.4143486  11.1380348  -7.9410110
  29.7596664 -24.4835072 -27.2556076  30.0992813 -24.8760262 -26.3877831
  29.9719028 -23.5412006 -27.0818615  16.7712517 -25.1560726 -13.7666607
  17.4896755 -25.8110466 -13.9908953  16.0475769 -25.4915905 -14.3215618
  19.7074623  44.7460899 -19.3340168  19.1235809  43.9283257 -19.6100063
  19.4511166  45.3145981 -20.0795689 -10.5332260 -10.7610502 -26.2774639
 -11.1899366 -10.7938519 -27.0429420 -10.0891552 -11.5987329 -26.4994926
  20.8100777 -17.1576881  40.1897507  21.1106281 -16.3155746  39.6419792
  21.1061459 -16.8571014  41.0403328 -23.9112339   6.4254017 -28.9190388
 -24.5779800   5.6958199 -28.8492432 -24.1190338   6.9512544 -28.1378498
 -14.7439175 -13.6512756 -34.5766945 -14.0728722 -14.2265844 -35.0098724
 -15.4871883 -13.7375450 -35.2323990  23.1842670 -26.8971977  -8.1949730
  23.8792477 -27.4782448  -8.6563196  22.7707367 -27.6277428  -7.6901793
  21.0133286 -10.4827051  -5.7162848  20.6867561  -9.6220589  -6.0019336
  21.9739666 -10.3104162  -5.6696129  20.0327530  47.3812599   6.0247951
  20.3617897  47.2732544   5.1201105  19.3256664  48.0132523   5.8231764
 -35.0821724  -8.1210871 -12.0017643 -34.1747398  -8.4613647 -11.8952227
 -35.4128075  -8.6277466 -12.7559071 -18.6438961 -44.6874542 -14.8570576
 -17.9281788 -44.3958321 -15.4312038 -19.3795414 -44.8581886 -15.4742260
 -20.8863316 -11.0181732 -19.3910561 -20.8022518 -10.2055426 -19.9749851
 -21.1355190 -10.5014734 -18.5718441  32.9789162   6.3271909   0.5254579
  32.2367821   5.9960680   1.0535951  32.7465057   5.8921447  -0.3480130
 -10.8768759  18.6434498  34.1365814 -10.6972580  17.7013836  34.2492752
 -10.2397394  19.0447102  34.6926956 -36.0733833  22.2133503 -18.6298351
 -35.3259163  21.6387253 -18.8610954 -35.9119797  22.3217678 -17.6583481
   0.9417208  -0.0110914  15.4075069   1.5925010  -0.1564887  16.1273289
   0.3216469   0.6022062  15.9143524   6.6487761   1.4232191  46.9766312
   6.8043823   2.3807373  46.9194374   6.1063700   1.2716682  46.2025261
 -19.7515564  -8.5301476 -29.5896492 -19.3602962  -9.3972063 -29.7592163
 -20.4503098  -8.4885025 -30.2805691  20.6161709 -28.7633057 -32.8557663
  21.5709133 -28.4050083 -32.8410759  20.2233105 -28.0189438 -32.3143311
 -20.8574600  24.2130527  21.8642292 -20.0851784  24.5937958  22.3678017
 -21.3122349  23.8145714  22.6371479   4.5921631 -30.3881207 -20.3442364
   5.3144622 -29.9305706 -20.8502960   4.7044868 -31.3014183 -20.6586266
 -18.9626064  -6.5427361 -13.6884327 -19.0510006  -6.7438216 -12.7149591
 -19.7139645  -5.9787083 -13.8862000  17.2301445 -15.2135239  11.3867397
  17.5838108 -16.0768719  11.4527159  16.2793179 -15.3930626  11.5490952
 -43.3528214 -16.5994911 -21.9713840 -43.7829742 -17.4118042 -22.3560963
 -42.5761452 -16.6044273 -22.4335003  36.8700294  -0.6845368  25.4791355
  36.7755318   0.2929782  25.2527332  37.3322906  -0.6406107  26.3816986
  20.0894737 -24.7121696  31.6799316  19.3332577 -24.2654667  32.0639801
  19.6969337 -25.5930290  31.4467297 -18.1694965  -1.7675165 -15.6272888
 -17.2833042  -1.8106099 -16.1405144 -18.0521851  -2.5545776 -15.0279493
 -30.3543034   7.9270086 -21.2212143 -31.0795765   8.5127926 -20.9899464
 -30.3426094   7.2669888 -20.4925156  34.2757912  30.0885620  13.6766376
  34.1685791  30.7832603  14.4258757  34.7637367  30.6875706  13.0416956
  20.6670628  15.4734354  34.0727577  20.2413635  16.0555782  33.4390182
  20.1457348  14.6681366  33.9162903 -21.7149467 -20.8600903  13.9276400
 -21.5582123 -21.7222137  14.3784266 -22.4971390 -20.5789413  14.4201546
 -24.6945305   8.9761066  25.6847858 -23.7042713   8.9359598  25.9430885
 -24.5633335   8.7931404  24.7457466  36.5585938  17.9317627 -20.9476109
  36.5496330  17.8803520 -20.0110836  35.6452255  18.0301781 -21.1719418
   7.6805954  10.5398989  -8.2522573   6.9959249   9.9182186  -8.5160170
   8.4645519  10.2157297  -8.6904573  14.2268925  20.8012905 -13.0941553
  14.4137001  20.4276485 -12.1720695  13.5616627  20.1243973 -13.3908281
  -5.5167174 -45.3795700  -3.8838623  -5.9644217 -46.0258942  -4.3647618
  -5.8758407 -45.2185745  -3.0495858 -17.8610401   0.4694866 -41.2944221
 -17.2632732   0.0206137 -40.6594849 -18.7154503   0.3786648 -40.9091568
 -35.2864265  13.8197107 -29.7674656 -36.2156715  13.8268337 -29.9451561
 -34.9044113  13.2990131 -30.4876652  -0.8426381  39.0310669 -28.1124554
  -0.1480360  39.5114555 -27.5754986  -0.3879332  38.1813087 -28.1825581
  -0.1791045  25.5033455 -15.4081316   0.4663113  26.2116184 -15.8120289
   0.5121354  24.7477531 -15.5058842  12.9286480 -17.8283939   5.1084523
  12.0714378 -17.4774780   4.7301002  12.8253317 -18.7339611   4.7761626
  33.8325806   8.4915838  28.4664516  33.1209755   9.1305637  28.1366634
  34.6192589   9.1012554  28.1994381   2.5475290  13.6394262 -37.8974495
   2.3273027  13.0076180 -37.1313362   3.5190799  13.7238293 -37.6899567
 -18.1581230   5.1801209  14.7950811 -17.8328934   6.1346202  14.9928036
 -19.0250664   5.4890337  14.4670954 -15.8990927 -30.7440186  22.7291279
 -15.8647728 -29.9360924  22.2059708 -16.7842388 -31.1499405  22.5242329
 -29.7088032  -0.1111597  23.0759468 -29.3759956   0.2536003  22.2226238
 -30.3797188   0.6346061  23.2649040  32.7256584  14.2552786 -12.1551924
  32.7150421  14.5322161 -11.2171078  33.0692329  13.3525133 -12.1154766
  -3.2078345  16.1659584 -27.2328930  -3.0275114  15.6593952 -26.3523808
  -4.0354342  15.7903519 -27.4493771 -39.6984444 -17.3401508  26.3100872
 -40.0219307 -18.1301689  25.8504601 -39.3721809 -16.8166313  25.5680141
  25.3416615  36.2684517   1.4181999  24.7754745  35.5115585   1.2364942
  25.5160065  36.6987572   0.5863574 -26.9606476 -16.9731617  19.9794579
 -26.8677559 -16.0711403  19.5597954 -26.1771431 -16.9538345  20.5403919
  11.2966652 -23.1119308  36.9724770  11.0134659 -22.1896229  36.9419785
  10.4737482 -23.5692673  36.8118629 -20.2955799  19.5882568 -36.2916031
 -20.4811230  20.4984665 -36.0950050 -19.7438316  19.2567711 -35.6243553
  38.6597672   5.9330244  -7.3161855  38.9424286   6.3267827  -8.2089701
  39.5979462   5.7487974  -6.9765010  39.6524696 -26.4290276  12.9560270
  40.4693985 -25.9545994  12.6928596  40.0802879 -27.0749092  13.5482073
 -14.0192251  35.6808701  -7.3325715 -13.2908230  35.2719307  -6.8145046
 -14.5117941  34.9205933  -7.6817551   1.0062063 -22.3177719  15.5328751
   0.3457446 -22.8836613  15.0909224   1.5431790 -22.0849323  14.7342300
 -10.2915564 -34.9397316  20.6379166  -9.3581400 -35.1427765  20.9727173
 -10.6744747 -34.4527283  21.4067917 -14.4803972 -29.8755856 -25.9544392
 -15.4180050 -29.6913319 -25.6017094 -14.3345308 -29.0224056 -26.4260082
 -43.8885117  16.6077023  -5.6887326 -42.9665642  16.7768440  -5.5284081
 -44.0501938  17.3562107  -6.3570676   9.2934694  -8.4713049  29.6602917
   9.3495903  -9.4129305  29.9695930   8.6936350  -8.0750914  30.3421879
  34.9463882  10.9943409 -24.1008968  35.7853699  10.7349749 -24.5591984
  34.6087265  10.1257477 -23.7896538  17.8785095  11.3336353 -17.7057037
  18.2900944  11.8479071 -18.3975182  18.0682983  10.4036217 -17.9723434
 -34.0271568 -22.1385765 -14.3618145 -34.9319763 -21.9621258 -14.4908743
 -33.6213951 -21.3620777 -13.8854551  13.1372395  -6.8921747 -18.8675060
  12.5257931  -7.6297607 -18.7627811  12.5524817  -6.3104534 -19.4254227
 -27.0690079 -33.9121246 -15.3847523 -26.9310703 -34.4003296 -16.2196846
 -26.1532631 -33.7077332 -15.1357641 -13.0851688  22.3642635 -26.5602379
 -13.6364565  23.1346493 -26.8632317 -12.3843193  22.3607121 -27.3021526
 -42.0356636 -17.2410107 -18.4890480 -41.8917084 -16.2598705 -18.5270252
 -41.2609558 -17.4784451 -19.1025639  13.4741135 -33.2256470  -3.3178859
  12.7677383 -32.7101173  -3.7673466  14.2561874 -32.9294052  -3.8206913
 -43.1487007  -8.2547932 -23.1851444 -43.1101036  -8.8623104 -22.3922119
 -42.9195175  -8.9171305 -23.8267174  19.5876255 -34.4072876   9.4794207
  19.7723064 -35.0690536   8.7733698  18.6311436 -34.4551010   9.5404558
  21.9670677   9.0497732 -27.9901772  21.1481895   9.2213612 -27.5107250
  22.1983280   8.1674690 -27.7746315   1.1949954  -9.9378424   1.4923544
   1.6707100 -10.7457142   1.6294734   0.8287564 -10.0976210   0.5916566
  42.4162216   4.4666862  31.9781036  42.5405884   4.6313262  32.9392395
  41.6293602   5.0481782  31.7601871 -18.9480648 -11.2578907 -29.7143955
 -18.2989235 -11.9586897 -29.5721684 -19.7706108 -11.6952028 -29.4001274
  11.7297344  22.9575462  26.7424603  11.9336891  23.7096024  27.3253574
  12.2198858  23.1981583  25.9160900 -40.9738617  11.9750576 -20.5575485
 -41.4998436  11.1894026 -20.3889427 -40.4859543  12.0831165 -19.7631531
 -18.4570541  13.4080715  13.7629013 -19.1084538  12.7834320  14.0665264
 -17.8184185  12.9376717  13.2462311 -29.2342396 -23.4643574   4.5891809
 -28.2768307 -23.2919617   4.3486075 -29.2374229 -24.4238110   4.4615574
  -3.4393504  -0.8694650 -18.8210201  -4.4201102  -0.8148358 -19.0737152
  -3.2759058  -1.8158100 -19.1644688 -20.7389507   3.4986696   3.2694652
 -19.7846622   3.3866956   3.2866421 -20.8847809   4.0350361   2.5001571
  38.2188644  -8.2163200  17.2383022  38.6777763  -8.3420630  18.0669060
  38.8321800  -7.5682812  16.8566818  -7.6129446 -25.5251923  17.0692921
  -8.1748056 -24.7496567  16.9178543  -8.2278280 -26.2081223  17.3331490
  19.1639214   9.1697903  18.3286839  18.8136654  10.0662584  18.2219124
  19.7018909   9.3045654  19.1817436  12.5493002 -36.7082329 -24.1706734
  12.9718857 -37.2657280 -24.8079395  11.8322105 -37.2531242 -23.8812771
   3.5985751 -10.0721960  23.9404125   4.4963126 -10.3726940  23.8509388
   3.1838083 -10.4759035  23.1606789  27.8460941  20.7615757 -11.7833586
  28.7626553  20.6312962 -11.4859123  27.5594559  19.8711567 -12.0322218
 -25.9325333 -10.7768927  22.7333641 -25.4235191 -11.5024986  23.2462330
 -25.1375122 -10.3406639  22.3634186  18.0192204 -25.3808537 -17.1028194
  18.1096592 -25.4890537 -16.1323624  17.3614655 -26.0804119 -17.3116322
  25.8779106 -11.1276646  26.6928139  25.3569584 -11.9789505  26.6873341
  25.1306686 -10.5384932  26.9600620  16.4812241  35.7397728 -15.8571033
  15.8260431  34.9622116 -15.8534298  15.9628325  36.4331284 -16.2593117
 -13.1822863   7.6037436 -28.0538921 -12.9635372   6.9317636 -28.7272644
 -12.8954258   7.2419071 -27.2344112 -31.6214161 -20.0447254  22.1133099
 -31.6046333 -21.0036201  22.1284695 -31.7519894 -19.9214344  23.0916538
 -19.1159592  -1.0891801  16.4961720 -18.9473419  -1.5290489  17.3607464
 -18.2462997  -0.6169224  16.4350433  14.2643270  30.6818504 -26.1272526
  13.3685246  30.5336399 -26.4023685  14.4520292  31.6322060 -26.3177414
   8.2279501  18.7993793 -21.4128609   8.6074324  17.9009418 -21.2648811
   8.2646437  18.8440075 -22.3966827  29.1974220 -14.6845388  12.9534521
  30.0144539 -14.3774872  13.3970804  28.8687782 -13.8107843  12.7559547
  32.7863693  18.6307354  17.9461651  32.6574821  18.1031418  17.1557331
  31.9869080  18.3655186  18.4864521 -20.1570339  13.4888268  19.9077740
 -20.0900650  14.1559172  20.6448193 -20.3608665  12.6829634  20.4547291
 -23.7418060   4.1790643 -43.4537354 -23.8170586   4.9030123 -42.7391930
 -24.0521603   3.4278693 -42.7872734  11.9731283 -25.5964718 -27.2903271
  12.9261274 -25.7860146 -27.2659225  11.7710991 -25.5608120 -28.2256794
  25.4747009 -36.7579346 -19.5750999  24.9407368 -36.4906540 -20.3883381
  24.7285843 -37.0072212 -19.0000305  -2.3347058   5.6006675 -41.8708611
  -2.0456986   4.8285518 -42.4331741  -1.8522711   6.3180509 -42.3309860
  12.3599262  11.9617996 -30.0765476  11.5679646  12.3389721 -30.5310879
  12.9416227  11.7745790 -30.8102322   4.8540211  16.5547886 -16.6193790
   4.6261148  16.9195480 -15.7290630   4.0679684  16.0158730 -16.8121109
  -5.3954997  -6.2514319 -17.2327194  -5.0155892  -7.1519103 -17.0796814
  -5.8555412  -6.0887132 -16.3852043   2.8893344   6.9399385  33.3510132
   2.1513038   6.2954044  33.3584061   3.6042297   6.3701501  33.1734276
 -10.7183990 -23.4075661 -23.7367783 -11.0029020 -22.8410664 -24.4398308
 -11.1497869 -24.2387962 -24.0724792   6.7174520  41.4232216  -2.7440000
   7.0664740  41.7107582  -1.8321816   7.2946906  40.6099358  -2.8475578
 -22.8306332 -30.1259556  26.4939728 -23.1060677 -29.5985889  27.2946739
 -23.0630455 -31.0219574  26.8478565  14.0059805 -24.0970707  34.8201370
  13.3226919 -23.5755501  34.3935204  13.5124836 -24.9515476  35.0330505
  -8.5489702  17.5262508  10.3815317  -7.6785989  17.8883266  10.0286951
  -9.0266085  17.4580441   9.5542383  15.4933023  18.2996311 -22.1019306
  16.3510761  18.7032814 -22.5381603  15.0713692  19.1608620 -21.8271828
  13.4000826  18.2693424 -13.4075422  13.2377157  17.4855881 -12.8067331
  14.3544521  18.0037251 -13.6964369  -0.8411766  -3.0019639 -14.8351183
  -0.3052789  -3.2509792 -14.0885839  -0.1902873  -2.6580098 -15.4517126
   5.1442318 -26.9186954 -31.3311882   4.3158636 -26.4003620 -31.4181862
   5.5359435 -26.4694061 -30.5168037  -1.0051309 -28.7772770  23.9265327
  -1.4998672 -29.6406689  23.8373356  -0.0878157 -29.1121159  23.6986675
 -22.5575905  28.9061947  11.3365173 -23.3569031  29.3256302  10.9454489
 -22.6681614  28.0127087  11.0062742   5.0535874   3.2002189  24.9186096
   5.0171504   3.0712092  23.9930668   4.0957866   3.1520901  25.1450348
  28.1131001  13.0657902 -28.0023003  28.2270126  12.0485296 -27.9665833
  28.9740009  13.3017483 -28.4739227  37.8602180  -3.0264723  24.9186935
  37.3759193  -2.1767590  25.1528206  37.5446854  -3.6053548  25.5955124
   7.5707746  47.0151482   3.0828319   8.0046425  46.1999702   2.7356167
   6.6658072  46.6974983   3.0986052  36.2359276  36.1577225   8.9126606
  37.0658035  35.6921310   9.1099682  36.5589485  36.8843498   8.3300133
 -25.9077892  19.4820805 -10.1885328 -24.9460697  19.5234318  -9.9115067
 -25.8118744  19.5820827 -11.1507854 -21.7870712 -23.0058956  18.0165634
 -21.6458626 -23.4475079  18.9357243 -21.3859787 -22.1296768  18.2700520
   2.8247454  31.5932751 -21.5166111   2.2901287  30.7921143 -21.5617008
   3.5115669  31.2998161 -22.1999168  20.7465115  38.7566528   0.2953338
  21.0955524  38.1572304  -0.3479349  21.5335617  39.2256966   0.5948987
  30.3090611  21.3311996   4.3288217  30.5299835  22.2920341   4.2923546
  29.9470139  21.2275848   3.4568365 -11.1146259   8.9396210  14.3390675
 -11.7931309   8.7432814  13.6924314 -10.7291050   9.7792845  14.0840607
 -34.8832016 -29.3562660   6.2589889 -34.7879257 -29.0093479   5.3512731
 -35.8417664 -29.2960968   6.3655562  29.1059036  38.9857559  -9.1078548
  28.5052338  38.8607025  -9.8676004  28.5319309  38.6244392  -8.3467846
 -11.1584921 -42.8255920  22.0738831 -10.4874954 -42.3887024  21.4593029
 -11.8227129 -42.0781364  22.1166840  11.4725981  18.9330063  10.4641552
  12.1949034  19.4970379  10.7321215  11.0959053  19.4890041   9.6850567
  31.3171101 -21.0023594 -30.4314423  31.3816795 -20.1173725 -30.8136806
  31.0075302 -20.8779716 -29.4944363 -19.8403339  -8.2791939  18.9491177
 -20.0131168  -9.2910566  18.9105339 -20.8050442  -8.0476608  18.7081108
   6.8858271  10.2993011  40.3721809   6.0453911  10.5836287  40.7614822
   7.4655957  10.9692068  40.7463112 -30.5675793  -5.2844009   6.2979321
 -31.2554607  -4.7462616   5.8970551 -31.0706139  -6.0890770   6.5826445
  22.7034950  13.8718624  -1.3320493  22.8876019  14.1146936  -0.3919464
  22.3053532  14.6707067  -1.6519958  32.7461166 -30.3792744 -14.5485964
  33.5335732 -30.6527328 -14.0515871  32.9047966 -29.3730145 -14.5503197
  24.6917782 -29.4150944 -26.0251274  23.8076477 -29.1976280 -25.8453121
  25.1962757 -29.1899223 -25.2580910 -42.0891418   0.2669227  17.0879288
 -41.8303757  -0.7195278  17.1337757 -42.4146309   0.2811464  16.1261768
   4.6109705 -35.3955650  -0.2485892   3.6832399 -35.1983833  -0.0401108
   4.5383792 -36.3733788  -0.2018234  28.6119461  -4.7738090  29.3188229
  29.0176468  -3.9625621  29.6834583  27.6637669  -4.5186830  29.5501137
 -28.5429611   1.9789762  13.4984398 -27.9424057   2.4840956  14.0383720
 -29.0452766   1.5121682  14.1787424 -35.3173943   3.1879909 -21.5491982
 -36.0831299   3.7411368 -21.8464489 -34.9111214   3.7579839 -20.8795128
   9.6603165   0.6550983  17.6851959   9.3664074   1.3756063  18.2375679
   9.9667807  -0.0197839  18.3512535 -35.0643959 -27.8298264  13.4137821
 -34.8964653 -27.8266087  12.4162645 -35.4928932 -26.9565811  13.4651413
 -19.0080605 -32.4603767   7.1914744 -19.5915070 -32.4905319   6.4294491
 -18.1835403 -32.8786087   6.9222393 -20.8195343  13.4938869  -2.3704388
 -20.2084446  13.9599876  -2.9525018 -21.5436440  14.1644821  -2.2127345
  28.9494476  -5.9287252  -6.1389065  27.9589787  -5.7367325  -6.3704519
  28.7454662  -6.3135862  -5.2454352  -7.7613754 -16.5563869  41.4324150
  -7.1865997 -15.7888651  41.6489410  -7.5006719 -17.1624031  42.1905441
 -13.0560026 -10.4634676  32.8839951 -12.3062191 -10.1343336  33.3048439
 -13.3463850 -11.1900148  33.4605026  24.4087410  11.2805090 -33.6577721
  25.0313034  11.9300079 -33.2283401  23.5892963  11.4601536 -33.0643425
  23.1339073   5.9269953 -15.7220669  22.8033428   6.8284116 -15.9802418
  22.5222492   5.8392477 -14.9475822 -14.9658422 -49.0426483 -11.9607248
 -14.4890137 -48.5438271 -11.3029366 -14.8295450 -49.9892197 -11.7035189
 -17.5428715 -18.7147789  19.8203945 -17.0222836 -18.0342026  19.3723335
 -16.8439465 -19.3453217  20.0521088 -35.4752274 -19.1368771   4.2193198
 -36.2080612 -19.8431568   4.2058477 -34.8302612 -19.5892677   3.5958126
 -37.1483612  26.1264629 -22.9528103 -36.4420738  26.4939175 -23.5024128
 -36.9331093  26.5852432 -22.1034584 -15.1597042   6.7347436  37.0063057
 -14.2452574   6.4782805  36.9619179 -15.3461008   6.8317752  36.0387802
  43.2781258 -14.2454472 -28.3792839  42.4358673 -13.9756451 -28.7275696
  43.5766068 -13.4911661 -27.8140831 -35.6821861  -8.1264076   9.0446920
 -35.2725830  -7.3626542   9.4172106 -35.1752129  -8.2947569   8.2096653
 -18.9013386 -17.9553738  15.9554138 -18.8151932 -18.6810055  15.2789316
 -19.5490570 -18.3978443  16.5506668  25.9939365 -31.1284351   7.2876658
  25.2595596 -31.0587292   7.9578118  26.7248955 -30.6639023   7.7711258
   0.6000231 -22.4260120 -12.1591606  -0.2646189 -22.6150761 -11.7840891
   1.1165799 -22.8857155 -11.4393501 -13.2852192 -30.3212585 -19.5642414
 -12.5355530 -30.3777313 -18.9790764 -14.0500784 -30.4424725 -19.0227146
   0.8516346 -22.9969540  39.6050491   0.3534384 -23.4853840  38.9412994
   0.0897588 -22.4247894  39.9714050  26.9223938 -15.9386330  35.0859871
  27.6144085 -16.2449741  34.4544563  27.4109211 -15.9175024  35.9643974
  16.0315304  12.8777885  12.6321478  16.8689404  13.2540121  12.2380466
  15.4516096  13.1264038  11.8315449 -29.0026455  15.1815729  27.4941139
 -28.3904991  14.5161791  27.8818932 -28.6034317  15.3120899  26.5999699
 -23.7196159 -18.8328171  19.7464733 -24.0042381 -19.7785301  19.5280399
 -23.3752861 -19.0662136  20.6547909  -1.4889588 -29.9194031 -12.7998152
  -1.5033468 -29.6617317 -13.7671623  -1.0515591 -29.1735306 -12.3689194
 -27.4148922 -11.5920420 -34.4099693 -27.3954811 -12.5350609 -34.5936661
 -28.2169361 -11.2850542 -34.8817139 -29.0720539   2.9631407  -7.9161711
 -28.4360046   2.9926348  -8.6792603 -28.4579086   2.9682510  -7.1579309
 -32.4268990   8.0202713   2.6068511 -31.6282215   7.5037537   2.3520398
 -33.0886650   7.6380973   1.9508926  36.3841095 -29.7572899 -19.6560574
  35.4225197 -29.9276981 -19.9292927  36.2199631 -28.7943783 -19.3963470
 -27.9581623   9.4741220 -39.2496071 -27.6304474  10.2077522 -38.6008606
 -28.7246227   9.1715622 -38.7099876 -39.1389236  13.6318102   2.4858971
 -39.6127472  13.6514702   3.3826210 -39.5800323  14.3776894   2.0493336
  -6.5062418 -31.0799179  25.6387291  -6.7831182 -30.3822765  26.2537022
  -6.6553054 -31.8788719  26.2141304 -16.4314518  -5.7977986 -11.6326952
 -15.8875780  -5.2084255 -11.0942812 -17.3302574  -5.7012982 -11.2688847
 -15.4378090  16.4757633 -37.9517326 -14.9812250  16.2780685 -38.8228607
 -15.6737566  17.4567318 -38.0692978 -33.3094978 -20.3920155  19.5684376
 -33.8618469 -20.2471561  18.7245426 -33.8958931 -20.9407349  20.0611477
 -18.8306026 -32.4293365  -4.5702567 -19.4774284 -33.1308746  -4.7748709
 -19.2869663 -31.6315632  -4.9667583 -19.5611496 -32.7726974 -14.7080212
 -19.9774628 -31.8780060 -14.6280861 -20.2527676 -33.1880913 -15.2927113
 -13.2640123  16.0515976  10.4463587 -14.0894442  15.6104021  10.1396656
 -12.5843840  15.3751564  10.2395411  -4.3297114  41.7121086   7.4350042
  -3.8718104  42.0975876   8.2045794  -5.0297456  42.4095116   7.2459049
 -24.3944187  -7.6975861 -21.2667465 -23.6550121  -7.5676765 -21.9093285
 -24.0730972  -8.5391512 -20.8634987 -23.8104534 -25.9327259   0.4821657
 -24.0560589 -26.8879318   0.6342564 -24.1641331 -25.8306065  -0.4055497
 -24.5915298 -11.0136623 -11.7194452 -23.8449879 -11.4832182 -11.3189125
 -25.3595009 -11.5661306 -11.4084234 -35.8718681 -17.0178909  -9.7555208
 -35.9865456 -16.3587704 -10.5369682 -36.6871033 -17.5336304  -9.8123074
 -26.7099724 -26.6793423 -13.3320293 -26.5735970 -26.2593822 -12.4366465
 -27.4214382 -27.2428284 -13.0876331  30.3345833  29.7167835  19.4594955
  31.0285530  29.1613331  19.0990047  30.1575851  30.3406487  18.7644558
  19.9331188 -13.9722567  45.6614380  19.5831547 -14.8647051  45.9664917
  20.8872719 -14.1250906  45.7750320 -11.7116117   6.0828795 -22.9335346
 -10.8400059   6.2654810 -23.3426380 -11.9272852   5.2021108 -23.3717365
  -3.0659714 -33.5671196 -21.8420105  -3.7512774 -33.2564049 -22.4816570
  -3.4023905 -33.3507652 -21.0010509   8.2400923  -0.7625355  -5.2764773
   8.2297678   0.1677542  -4.9425616   8.2147970  -1.1966568  -4.4410095
 -16.3644390  36.4490891 -11.6379089 -16.1910629  36.7262955 -10.6716757
 -15.6607618  37.0924797 -12.0171061 -17.5688610  -3.5989656 -37.4073029
 -18.3913174  -3.1977189 -37.6177483 -17.1202698  -3.5321236 -38.2680550
 -21.9542370  18.2285748   2.7085254 -21.1230278  18.6704235   3.0160449
 -22.6658211  18.7092285   3.1937258 -36.4633560  -3.0603225 -13.8030815
 -36.1301003  -3.9764636 -13.7147760 -36.6886253  -2.8027391 -12.8616810
  31.1790810  -5.7707520  32.4484138  31.7095413  -6.3650918  33.0349693
  30.2806396  -5.9022489  32.7910309 -10.4093466   6.3841591 -10.4824839
 -10.0410376   5.4513731 -10.4599552 -11.3409338   6.1060319 -10.7286892
  12.4130449 -32.2445412 -11.6355839  12.7785244 -31.3224831 -11.7231741
  12.6120138 -32.5914993 -12.5302744  20.6759815 -14.2006969  18.7901268
  20.8090420 -14.9425325  19.3547401  19.6718330 -14.1482086  18.7471409
 -26.4918404 -22.6176071 -17.9202728 -27.0197773 -22.3106861 -17.1554871
 -25.5888176 -22.6344852 -17.4990482  32.7450104  21.5325661  27.8499126
  32.5796661  21.8518219  28.7675838  33.3175087  20.7755299  28.0426388
  20.3650932  18.1278515  14.6154327  20.0695400  18.2335453  15.5244646
  20.9311008  17.3723087  14.7119961 -42.7554359 -30.8310261 -11.3380346
 -42.2451668 -31.2460384 -10.5773497 -43.2165604 -31.7050838 -11.6273241
  -1.2954029  30.3185558  18.3507595  -1.7298732  29.4746876  17.9960537
  -1.9890577  30.9168682  18.0107689 -35.8447304  19.1676350  -0.8854647
 -34.9946823  19.5759754  -0.9833907 -35.7377090  18.6120167  -0.0969101
  30.1341534 -34.8531952 -14.3679161  30.3937149 -35.5670280 -13.7576904
  29.8966331 -35.3713989 -15.1673794  25.7872849  -3.9390135  28.2010098
  25.2320900  -3.5772865  28.8669739  25.5379658  -4.7917571  27.9748039
  34.2040367  24.7426548 -16.4502888  33.5830727  25.2140789 -17.0270348
  35.0027618  24.6306458 -17.0437279   7.6051593  47.9363060  16.9212685
   7.1269169  47.9041290  16.0998116   8.4706945  47.6493073  16.6868019
  30.2049637  13.7278070   7.1521688  30.0225925  13.0442762   7.7648172
  31.1491737  13.7969208   7.0978594   1.5255010   7.9833412  16.1045113
   1.2873724   8.9604378  16.0501385   1.1800802   7.7628703  16.9692993
  -2.4184670   1.0221328  45.6542435  -1.5505648   0.7250921  46.0271835
  -2.6824257   1.7307789  46.3176231 -23.7008476   6.1779742  40.0547409
 -23.0820923   6.7906051  40.5351257 -23.2135086   6.1544218  39.1824684
 -17.7619934 -35.4153328  10.8605757 -18.0147171 -34.5923004  10.3839817
 -16.9075642 -35.6081200  10.3902941  -1.5862584  32.7984123 -22.8186550
  -1.8362541  32.0958405 -23.4570656  -2.3821232  32.6584053 -22.1845131
 -25.7465496  33.8445091   7.0803084 -26.3742008  34.5238152   7.4647141
 -25.4088898  33.4310608   7.8302979 -31.9334641 -28.2783585  18.5711899
 -31.8807278 -27.3612709  18.1254845 -30.9476566 -28.2640648  18.8498459
 -16.4517517 -35.0044899 -18.0521088 -16.2804317 -35.5081635 -18.8315353
 -16.2498398 -34.1063194 -18.2834301  18.4492683 -20.4460335 -34.2253113
  17.6827774 -20.8544674 -34.7646599  18.2343292 -19.4669094 -34.5613327
  -6.7347493   0.2768715 -33.3517990  -6.9200640  -0.6585729 -33.5613213
  -7.6046023   0.5671166 -33.0085220  34.0027695  31.1996670  -9.9904118
  34.7955818  30.7461395 -10.2952099  34.2166557  31.1547565  -8.9947958
   3.0270808 -21.9402676 -24.7478428   3.0778213 -22.5768261 -23.9538231
   3.9268954 -22.2141151 -25.0929489   4.8963523  14.1774073  31.7536011
   4.4875550  13.3395081  31.5482216   5.2581501  14.5099878  30.8995705
 -29.1080780 -23.8931503   8.9513340 -28.7158089 -24.6980877   8.6216974
 -30.0206623 -24.2629051   9.1973705 -36.5442047  -8.1735258 -26.5600700
 -36.5202866  -8.7042522 -25.6976128 -37.4766998  -8.2336998 -26.8087864
  -0.5194709   6.3998790  23.3660717  -0.0126304   6.7510486  22.5991020
   0.1028919   6.4279151  24.1011791 -17.9872646  10.7195129 -19.4777241
 -18.7683506  10.8458176 -18.9222927 -17.4932785  11.5821667 -19.2428284
  -6.0414858  -1.7224722  25.7821617  -6.4898281  -1.2806060  26.5544319
  -6.4274812  -1.1137928  25.1050777  12.2236719   7.9724965  30.3879185
  12.4560900   8.8698759  30.0064201  11.2763758   8.0984163  30.3592472
  21.1863079 -37.4445992   1.6080804  21.4003620 -36.4543457   1.5770361
  20.3696632 -37.3990021   2.1836171 -21.5156422  13.1998692  29.1684952
 -21.6456509  12.4404325  29.7434750 -21.7573643  12.8380251  28.2947388
  -1.4665917 -20.7956314  -8.3971701  -0.9281610 -20.9205570  -9.2423496
  -0.8086317 -21.1186771  -7.7498069 -12.4370794  -5.2271032  22.8665619
 -12.9515352  -6.0816875  22.8666992 -11.5683842  -5.5486751  22.9370003
  10.4450026  -8.3556929  24.1532574  10.0830479  -7.6609588  23.5169697
  11.3319120  -8.4524136  23.7018166 -16.5025940  39.7621956 -31.5625992
 -16.2095890  38.9713593 -31.0518303 -17.4846020  39.8702202 -31.3987217
 -12.8002510 -14.6382370  25.2285366 -13.6870813 -14.4960384  25.6105385
 -13.0169268 -15.5037355  24.7852650  18.2221661 -29.0421658 -16.3057632
  17.9292431 -29.4023590 -17.2230988  18.6683292 -29.8027229 -15.9640598
   6.3489456   4.3516903  45.8491631   7.1167464   4.3756609  45.2700043
   6.3731914   5.2511640  46.2222977 -25.7022533  33.8695488 -20.7125664
 -24.9645710  33.2819939 -20.9230423 -25.9271030  33.4700623 -19.8517952
   9.0405302  40.7292519 -13.0852175   8.4788227  41.4227791 -13.4934645
   8.6232138  40.7066612 -12.1777802  18.2060928  39.0296974 -15.6374531
  18.8296738  38.3014336 -15.9487753  18.2555275  38.8655548 -14.6778450
  26.7953205 -28.8669643   9.0594463  27.2767067 -29.7485828   9.0069065
  27.3652973 -28.4028625   9.7015762  31.0825310 -10.6973724   8.2996855
  30.3822117 -10.3296938   7.6997709  30.5783558 -11.5196457   8.5457935
  42.8286972 -18.2464943   2.0205610  42.4815331 -18.5731316   1.1924744
  43.2275124 -17.3938980   1.6823324   6.2682929  -5.3402739 -26.0885181
   5.3800530  -5.4377012 -26.5058651   6.3709831  -6.1105051 -25.5256824
  -5.8422060   5.4269257  51.0217056  -6.5395846   4.9049201  51.5797577
  -5.9846277   6.3143907  51.5411263  14.7416468 -29.5189915  13.4709558
  14.6931696 -30.4700699  13.6885214  14.1045284 -29.1790218  14.1243029
   3.0734334 -36.5849266  17.5435886   2.2787311 -37.0758972  17.7842693
   2.8682714 -35.7473793  17.9996929  13.1804256 -18.6512070 -47.9815331
  13.8261967 -18.2549782 -47.4766159  12.3418026 -18.4740257 -47.4516983
   1.8831311 -11.2264929  19.9758549   2.5818765 -11.4282351  20.6672401
   1.0862799 -11.3887463  20.5760269 -23.5563202 -18.0065022 -29.9660473
 -22.8283024 -18.6275635 -30.2363205 -24.0411625 -18.0113029 -30.8622932
  -1.5510433  38.2192116  20.2100353  -2.2153802  37.7702332  20.7208061
  -2.1735237  38.5177002  19.4853172  -5.6193671  -9.0488176  33.0185661
  -5.7476840  -8.5721560  33.8854523  -5.1993928  -8.3707972  32.4847374
  21.0648842  12.6679544   7.6942153  20.9080696  11.9963474   6.9653921
  21.4377251  12.0790920   8.4057331  21.9701881 -11.2084007   4.4938521
  21.0980434 -11.4201307   4.8661122  22.3931694 -10.8855572   5.3135657
  32.6243896  18.1858025   3.7599862  32.9397507  17.7882576   2.9415553
  31.6023769  18.1479683   3.5312996  14.0865374  12.6295662 -27.8420715
  13.5732145  12.4274521 -28.6401062  13.7232676  13.4875164 -27.6085815
  -6.7650471   7.0857196  -0.1324294  -7.6545711   7.4892416  -0.1896464
  -7.0045648   6.1636677  -0.4113596 -28.0370159  -9.1497450  24.3736153
 -27.6409283  -9.1727190  25.3178864 -27.5202026  -9.8252821  23.9511604
 -37.3989944 -20.6779461   5.2156334 -38.0227890 -20.1157570   5.6497173
 -37.2074890 -21.3601055   5.9158096  -9.1626406   2.9874537  32.1036377
  -8.8965445   2.3160563  32.7508125  -9.4448853   2.4285347  31.3856621
 -24.8569241  -6.3083568  -1.1879872 -24.5838776  -5.9588814  -2.0686252
 -25.8626118  -6.2928162  -1.2481728  -3.0756345  -9.9975557  15.9901495
  -2.2466335  -9.6148987  16.3260098  -3.6606326  -9.2477427  16.1693306
  32.2753220 -22.8694744  20.3541183  33.0659561 -22.9324207  19.7691250
  32.7342834 -22.5359955  21.1889458  29.0380421   5.8348389  16.7027664
  28.6454296   6.4091396  15.9744425  29.5489464   6.5507135  17.1862354
  14.5337334  49.0364342  14.6509371  14.6310263  48.3423729  15.3583250
  14.9092159  48.5472679  13.8991995  14.9201746 -40.2551880  15.6451712
  14.8728456 -39.9300995  16.5417709  13.9946489 -40.3027458  15.4526939
 -20.7734413 -41.3906059  -9.3050146 -20.3425407 -40.6182251  -9.7237587
 -20.0543938 -41.6112862  -8.6261454  28.5090332  11.9738636 -19.2320900
  29.2890530  11.4836092 -19.5276432  28.7477016  12.1523561 -18.3492489
 -37.2712364  -0.8089827 -34.5278473 -36.3887215  -1.1482614 -34.6244736
 -37.6895256  -1.4444530 -33.9696045  -2.8054790   8.1622562  51.1562157
  -3.6689949   8.6120958  50.8777618  -2.8548493   7.3288288  50.6825600
  23.1218414 -14.1845722 -33.9915771  22.8770847 -15.0526924 -33.5566483
  22.5321121 -14.3126764 -34.7870407   1.1137962 -41.8364677  10.7930622
   0.4051950 -41.2201424  10.5573444   1.4574976 -42.0843544   9.8978796
 -11.2213726  13.7054930 -43.9361763 -10.4561882  13.9270449 -43.3562164
 -10.7506952  13.1414156 -44.5639954 -33.3210678  -6.1073408  -5.4895415
 -33.7283173  -5.3806024  -5.0579128 -32.6255531  -6.3989544  -4.8757601
 -18.6769810  -6.2091484  43.3824539 -18.8270016  -6.6026812  42.4473457
 -19.3953400  -5.5560241  43.4218063   6.7224951  47.4078941  14.2372036
   6.3412457  48.3199997  14.2059126   5.9778428  46.9398804  13.7979193
 -24.0751419 -12.3212996  -4.3156528 -23.4938984 -12.8738956  -4.9147382
 -23.4809093 -11.7247906  -3.8935895  32.4746666 -23.6578636  16.1130047
  32.8743439 -24.1401272  15.2682915  31.6257191 -24.1141624  16.0203800
 -25.6970940 -27.1357803 -20.6141777 -26.2722931 -26.5474873 -20.0966587
 -24.8194294 -26.7689381 -20.3312645 -12.0852776 -21.3097591   7.9252925
 -13.0001974 -21.5134640   7.6323085 -11.9906712 -21.7746792   8.7777891
   1.5179217 -45.9265137  21.3662510   2.0919752 -46.1554337  22.1314182
   0.9112211 -45.2681885  21.7546062  35.9839287  13.8516502  15.3034725
  35.4745903  14.7354183  15.2538137  35.5509262  13.4139309  16.0168076
  -1.1809729 -15.5694742   6.4613962  -1.5613719 -15.6053743   5.6130366
  -0.2862143 -15.3004475   6.3513613  40.6273880 -19.2202034  11.3467283
  40.1671371 -18.6287060  10.7049932  40.3567505 -18.7243462  12.1967010
 -40.4240990  15.0210752 -17.1090775 -39.7393265  14.2923326 -17.2284317
 -41.0955811  14.6592817 -17.7035618 -30.2253265   5.9776511 -23.2602158
 -30.4973030   6.6638532 -22.5993652 -30.8641891   6.2143908 -23.9430923
   3.5444560  -6.2225146  -4.4860597   4.3211727  -5.7337508  -4.2474527
   2.9562402  -5.9180617  -3.6808736  -4.9540911  37.6511955   5.5572262
  -4.2594976  37.0817261   5.1779318  -5.5745049  37.6892738   4.7828598
  32.9472580   7.9389806  10.2469053  32.6276665   7.6896458   9.3719091
  33.8727493   7.6490273  10.2786160 -33.8374634 -12.7420359  -3.4642270
 -33.5274887 -12.8656788  -2.4979081 -33.0344162 -12.3347883  -3.8298619
 -11.4730692 -36.3334122  -0.7846356 -12.0012188 -35.5342827  -0.8181652
 -11.1707497 -36.3578148   0.1281826 -40.8602676  -3.1269310 -16.6521759
 -41.1632843  -3.2912848 -17.5477200 -40.7400627  -2.1218994 -16.6822548
  -1.3670825   2.5738902 -16.7235928  -2.2797768   2.1938126 -16.9524479
  -0.9000487   1.7708600 -16.4540997 -13.7411518 -25.0209484  -3.6171026
 -14.3332014 -24.2795620  -3.8561935 -13.2445936 -24.7069168  -2.8510401
   0.3259521   8.7748957  45.7996941   1.1244404   9.3381176  45.7690201
   0.3223291   8.4109735  44.8896599 -28.5292091  -4.1228008 -37.4116783
 -28.9400673  -3.6346381 -38.1542511 -27.8751965  -3.3780041 -37.2033463
 -28.0894432  29.4509411 -25.4730434 -28.9151382  29.9473019 -25.5182133
 -28.0274487  29.0092010 -26.3241119 -30.6591454 -21.6162968 -15.5566759
 -29.8512077 -21.1363602 -15.8934851 -31.3523846 -20.9450645 -15.7954741
  28.9500847 -32.5440292 -13.0895281  29.2495651 -33.2411461 -13.6726999
  27.9941120 -32.7546463 -12.9856739  13.1117449  35.0334435 -19.1002655
  12.6910686  34.9101334 -19.9644337  12.6147881  35.8735123 -18.8527260
 -20.3303432 -38.1241226   0.5515070 -20.5644569 -37.3414001  -0.0545154
 -21.0443516 -37.9606361   1.2341882   5.0831833  36.5153618  22.8896389
   4.9638801  37.4347687  23.0287094   5.2639089  36.4661789  21.8920155
 -43.2154655  12.2391176  23.6095028 -42.3928795  11.7089233  23.3847275
 -42.8227501  12.6097183  24.4587383  -4.3523154   0.0475427  49.9774246
  -3.6568708  -0.5605516  50.4208374  -5.1573920  -0.3380747  50.4266129
  14.2227306 -17.3192081  22.3273277  13.4193001 -17.8302383  22.6344662
  13.9425774 -16.3856106  22.4819088   2.4107461  21.9654160 -11.0467482
   1.8551496  22.4539680 -10.4250975   1.7236651  21.5013504 -11.5861731
 -38.5454636   7.4739408  23.2412186 -37.7514267   6.8769693  23.2307358
 -39.2447929   6.8517561  23.4660511  22.2431908 -26.7150650  17.5675926
  21.6740150 -26.2644787  16.9453983  22.5978966 -26.0614491  18.1931725
  -8.2208290  36.0436440  -7.8378563  -8.0727797  35.1244621  -7.6124148
  -7.3346472  36.4451027  -7.7118468  -3.5716779   6.7292075 -47.4219780
  -3.4013028   7.1539879 -46.5295410  -4.2254019   6.0925236 -47.1233025
 -11.3785048  40.9828072  -0.9460049 -12.0331554  41.6718102  -1.1914011
 -10.7797899  41.0011902  -1.7542789 -20.8100052 -10.4382296   0.1964075
 -21.1077671 -10.9965363  -0.6028703 -20.1203880  -9.8945103  -0.1838417
   7.7197385  15.6860170 -15.5913277   7.1281385  14.8991070 -15.5181065
   7.1976562  16.3137836 -16.0986805 -10.9433851   3.2224791  22.3993435
 -10.7592077   2.2980351  22.6893291 -10.3863840   3.7352073  23.0278206
   9.4672852 -35.0275574 -34.9000854   9.7304897 -34.7637177 -35.7703514
   8.6048746 -34.5516815 -34.7638435 -40.8505821 -22.1012688   4.3920360
 -40.9975586 -22.4680882   5.2651052 -40.4231224 -22.8884926   3.9369223
  16.7383137   2.9581592 -10.6082115  16.9125500   2.3344293 -11.3441277
  16.5448208   3.7742543 -11.1136179  -1.9003135  31.4822311  -7.1604714
  -2.1961393  30.7643948  -6.5480680  -0.8960400  31.4411201  -6.9883161
 -42.0245094  10.2627811 -31.2467327 -41.9796715  10.4766788 -30.3382759
 -42.1567612  11.1464682 -31.6867352 -40.6651192  -9.2036362  -9.8174429
 -40.1979408  -8.5405893 -10.4128456 -40.3937302  -8.8134899  -8.9372406
  -9.2782965 -32.0775528   1.9765800  -8.5407047 -31.5358829   2.2661941
  -9.9922247 -31.8482838   2.6181936 -29.8683243   0.6025213  15.3963423
 -30.6176758   0.3481160  14.7766237 -30.4147739   1.1928580  15.9943876
  -9.6615553  -3.9444737  -1.9075787  -9.2196436  -3.2265830  -1.5013436
 -10.6159925  -3.7406366  -1.7511168  37.3247681  -9.9019032 -18.9393463
  37.5395660  -9.1209879 -18.3648186  37.4680328  -9.4155951 -19.7950954
  -0.4878433 -45.5229034 -25.2865486  -1.0493064 -45.5782890 -26.0597534
   0.3223184 -45.0460548 -25.6771908 -15.3628778  -3.7763255  39.1558838
 -14.8068991  -3.0012853  39.0498581 -14.7379656  -4.5119133  39.3582840
  -4.3927674  -5.2986612 -26.5036316  -4.2072368  -4.4872928 -26.9975471
  -4.9146128  -4.8629870 -25.7627010  12.2711372 -10.1980753  49.3705978
  12.7572546  -9.4822655  49.7130280  11.4465027  -9.7702236  49.0156212
   4.3353043  38.6371307   9.2627602   4.0093389  39.4976387   9.6337471
   4.3405838  38.0608101  10.0099812 -30.0938530 -37.6466789  18.7482300
 -30.8721409 -37.4994049  19.2569885 -29.4821301 -38.0782623  19.3339634
  13.1926994  -8.3399734 -29.9994373  12.5389004  -7.7772365 -29.5909424
  13.8115072  -7.7402143 -30.4601955  39.4764671   0.5839362  30.2228069
  38.5057259   0.6156605  30.4560871  39.7603340   1.4183477  30.7115383
  -8.7722406  22.9001617   3.5116208  -7.9340606  22.9351807   4.0405540
  -8.7667885  21.9536304   3.3115382 -26.7786999  -2.4177520  -8.3552113
 -26.9885368  -1.7165282  -7.7241254 -27.5816975  -2.3872571  -8.9094133
   8.4015894  15.5120316 -21.7824802   9.0645227  14.7953472 -21.6165981
   8.4676523  15.5278254 -22.7431908  -1.4039851  27.9238892   2.5700259
  -1.8993213  28.6504459   3.0189948  -1.6022768  27.1488209   3.2007606
  10.1346960  35.3271370   6.9334702   9.4291105  34.6892242   7.0603943
  10.7359047  34.8980865   6.3490949 -17.6280804 -30.9827061 -19.1068401
 -17.8162518 -30.0710602 -19.4773045 -18.5167332 -31.3018818 -18.9617424
  36.2250023   3.5708923  32.0297508  35.9959602   4.5098619  31.9712849
  35.8751717   3.3241262  32.8979645 -38.5266342 -21.0921993  13.8254128
 -38.9360352 -21.7266426  14.4666376 -37.5646629 -21.2129345  14.0403976
  31.6553326  16.0447826 -13.6723232  30.7667961  15.5373173 -13.3740778
  32.2121353  15.3858414 -13.0967979 -38.9047928  16.9052448  29.7207737
 -39.6561775  17.4541149  29.5103092 -38.2170982  17.5440197  29.9948883
  26.7329445 -16.9638710  -7.2554350  25.8259964 -17.0873089  -7.5485539
  26.9346008 -16.0745983  -7.5684538  -9.5663319  34.7221603  -3.8794682
 -10.2232904  34.7415619  -3.1309171  -9.8638668  35.6355171  -4.2747679
 -30.7772427  -3.5349841 -16.6061840 -31.1890125  -2.7788939 -16.2037659
 -31.4387474  -3.9017835 -17.2443027 -11.0708456  25.9527092  17.8213348
 -12.0106573  26.1887627  17.6655884 -10.8826923  26.5963669  18.5772915
 -38.1736107  -6.5300860 -22.1345081 -39.0390663  -6.0255795 -22.0111065
 -37.5738792  -5.8017979 -21.9444256  -6.8055267  -5.4005466  10.8593473
  -6.1311402  -5.4835739  11.5607262  -7.0701532  -4.4903250  10.9862194
 -12.4862576 -49.3793259   8.4884892 -13.3187122 -48.9013176   8.7781572
 -12.8355684 -49.9068031   7.7841449 -29.9545765   2.7046795   8.8861656
 -30.7161503   3.3265986   8.8720713 -30.2402191   2.1905417   9.6940403
  12.4498491   3.0446205   9.9596357  13.2155581   2.8908820  10.5431299
  11.7438469   2.4940772  10.3784151 -15.8916798  15.1439857 -29.8146667
 -16.3634663  14.4171810 -29.3454247 -15.1721535  15.3265676 -29.1260433
   8.7955866   2.4691756  48.7785454   8.8996248   2.0046537  49.6345940
   8.4751425   3.3335443  49.1005135 -14.1873093  41.3316841  11.8936834
 -13.9138031  41.5354385  12.8081598 -15.0395536  40.8796387  12.0186682
   0.4286838  38.8184509 -12.8373346   0.3869193  38.3673058 -11.9460173
   0.1193531  38.1355820 -13.4311705  -0.5467353  12.8829594  35.2680550
  -0.2890390  12.8593636  36.2068062  -1.4482654  12.6031084  35.2814789
  35.4394150  24.3741798  -9.1028395  35.6080055  23.5768356  -8.5573597
  36.2724304  24.6505184  -9.4026175  -1.9902734 -27.7810764  -4.7191505
  -2.3230405 -27.6700268  -3.7797701  -2.4416795 -28.6654892  -4.9346046
 -13.0349312 -19.5361977  23.2791080 -12.0530176 -19.5730057  23.2409782
 -13.2418871 -20.4762592  23.3527508  10.8250475 -15.0792942 -40.2191582
  10.8276005 -16.0802460 -40.3125725  10.3460388 -14.9899969 -39.3839264
   1.3255254 -41.5241585  -3.6645441   1.2316982 -42.2060661  -4.3936000
   1.7846764 -42.0806351  -3.0154166  -3.8197892 -11.9153337  41.5867081
  -3.9608445 -11.8138142  42.5363235  -3.2772999 -12.7434950  41.6056252
  13.0194273   8.2767992  33.0964890  13.5309563   9.1061020  32.8404961
  12.8479929   7.9581127  32.1476326  -5.2780552 -20.2925072 -30.9349213
  -5.5934672 -20.5929031 -31.8314724  -4.6305337 -20.9465332 -30.7720757
 -14.1734438   1.8968042 -20.5552025 -14.9227018   1.7268481 -21.1453819
 -13.4187698   2.0713427 -21.1281586  36.6582870 -32.9795456 -15.2866812
  37.4860306 -32.6058693 -15.5526276  36.5911903 -33.7871971 -15.8072577
  18.2392330  20.0807877  25.8983936  19.1397057  20.3971786  25.5656948
  18.0886002  20.8733425  26.5215759  17.0512657  -7.3303690 -27.8255634
  17.7116165  -7.6032538 -28.4421787  16.8700218  -6.4213104 -28.1777172
 -17.7864246 -22.4773445  -5.7813978 -18.5199032 -22.2211723  -5.1764789
 -17.2851696 -21.6089020  -5.7485719  35.3619614   4.4078031 -24.4249535
  35.6866035   4.3200216 -23.5255833  34.8616447   3.5307202 -24.4293079
  -1.2295773 -21.4235477  20.7316570  -0.4733942 -21.6229267  20.1099281
  -1.8973135 -22.0573311  20.3634815  42.7244873  -6.6318269  14.4393549
  43.5400238  -6.8504376  13.9573021  42.3406181  -5.9188881  13.8300829
  40.5023651  -7.4888926  25.1687183  41.4966278  -7.3704600  25.3487377
  40.2501106  -6.6247621  24.9480572 -24.2990685  -1.4666011 -12.2341766
 -24.3857803  -1.7642592 -11.2512884 -24.5593662  -2.3143430 -12.6367264
  15.6555195  27.0751133  12.5481462  14.6872416  27.3865566  12.4893770
  15.4721231  26.1200600  12.6702385 -36.8569031  17.1202297  -7.1326771
 -36.9081116  17.2280121  -8.0710516 -36.6179962  18.0406132  -6.8986845
  30.7423325   8.8469038  31.8570366  30.9675007   8.1887341  32.4790154
  29.9075317   9.2078657  32.1928253  28.1219635 -11.9666348 -33.1539536
  28.2418251 -10.9710217 -33.1110954  27.5986595 -12.0963230 -32.3374367
 -34.6989517  11.2251749  27.5951023 -35.4911003  10.7367048  27.5553493
 -34.0423508  10.5629053  27.2561378 -35.9253197 -32.2593689  11.6431007
 -35.5520096 -31.4868946  11.2078161 -36.8364449 -31.9827423  11.7293320
  32.9353828  12.8343840  27.4178963  32.9109459  12.6114225  26.4196358
  32.6404037  12.0164480  27.7519150  -7.8025961   4.8134661 -53.6994095
  -8.4753504   5.3233190 -54.1993332  -8.3045893   4.5804787 -52.9126968
 -13.7511892 -34.1585922   3.2732868 -14.4987392 -33.4905281   3.2704792
 -13.0141497 -33.4894295   3.3741281   2.4500949   3.7189157 -37.4942856
   1.9804046   3.8164549 -36.6632957   1.7859501   3.8629012 -38.1921120
 -13.6048450  24.7889576 -32.3490486 -13.2671328  24.1343899 -31.7100391
 -13.2478533  24.4425907 -33.1830902  36.5409241 -10.4203854  30.0569687
  36.5899162 -11.2298727  29.4892883  37.3474808  -9.9284887  29.6910973
  -0.7692494 -12.2870579 -27.2820454  -1.2658365 -11.8387289 -26.4857273
   0.1386984 -12.2254477 -26.9232006  28.4568577 -18.1374950  24.0388203
  28.2674732 -17.4681950  23.3304081  27.5677795 -18.0462112  24.5400429
 -16.7856750  14.8052521 -25.1975327 -15.9793777  15.1593771 -25.6494064
 -16.7383156  13.8499050 -25.4607735  21.2382660 -22.7507534  21.9370003
  20.5000782 -22.8728848  21.3166504  20.9050064 -23.0811882  22.8153477
 -41.4689713  23.5363350  19.1345520 -42.3501701  23.8852863  19.4706993
 -40.8575859  23.9029350  19.8186989 -20.7252579 -26.1615200   2.6668246
 -20.6233730 -25.9376030   3.6583328 -20.4329128 -25.3769836   2.2418499
 -27.1035099   8.5487671   7.8534832 -27.6556206   9.0642138   8.4485044
 -27.7370167   8.3985949   7.0960026 -24.6509609 -18.1288490   3.8095098
 -24.5765572 -17.4509354   4.5724788 -25.1197319 -17.5245781   3.2201171
  16.6759167 -29.9782925  30.8607121  17.6585388 -30.0824890  30.6748428
  16.5781116 -29.1008568  30.4826870  -5.6018295  37.0635681 -22.2787762
  -5.8655024  37.5266075 -21.4550056  -4.8398714  36.5333786 -21.9324265
 -31.1850796   8.8849344  29.6733398 -31.0092030   9.7939796  29.4204674
 -30.2820740   8.5170298  29.8843651 -14.6972885  12.7718735   7.1137433
 -15.4287395  13.2428465   6.6142068 -14.9540377  11.8478327   6.8976951
  -4.2975640 -21.4392281  -0.3335153  -3.3268752 -21.6695042  -0.3551006
  -4.2149544 -20.5508862   0.1785080 -27.3504086   3.6581190 -12.4890728
 -27.6720333   2.9355824 -13.0812035 -28.1863270   3.9493482 -12.0967903
 -28.0182896  -4.7039142  11.8582602 -28.0674038  -3.9468896  12.4100809
 -27.9927826  -5.4681063  12.4539013  11.7429819   1.9484656  21.1795597
  12.2654142   1.5351317  20.4530621  11.7768030   1.1344184  21.8083897
   8.4744911   5.4274750  -4.5950103   8.2553911   6.3607922  -4.5202227
   7.5736675   5.0721674  -4.7981558  -8.6489363   0.6526397  15.9862289
  -8.7119055  -0.3357433  16.1439781  -9.5251703   0.8772535  16.4184589
  38.7270432 -27.1133327 -14.4884052  38.3550186 -26.6219406 -15.2823763
  39.0574951 -26.4024124 -13.9286184  21.0101547  36.2991066  24.4383869
  21.4811420  35.4239693  24.5271816  21.2363472  36.5483246  23.5563850
 -27.7512856 -19.7505684 -18.4903812 -28.1534977 -20.0016880 -17.6478119
 -26.9444351 -19.3379078 -18.3027592  19.4107800  10.7096329  11.9657526
  19.8524742  11.4884443  12.3315716  19.2101021  10.2055120  12.7600746
  12.2983265  -3.2305827 -34.5842934  12.9177952  -2.4826941 -34.8226929
  11.6326666  -2.5813949 -34.1214790  41.6258850 -17.7467384 -12.8093262
  40.7050323 -17.4961472 -13.1405954  41.8396759 -18.4324284 -13.5117254
  -8.5027418 -10.6948929 -22.6594830  -7.6184015 -10.4943857 -22.2973328
  -8.4912186 -10.0824995 -23.4868031 -10.6912088  20.9548569  39.2466469
 -11.3343515  21.6257133  38.9168854 -10.3459749  20.6298962  38.3816757
 -43.6957550  -7.6978612 -19.3302593 -44.2711487  -7.4580259 -20.0701199
 -43.5215950  -8.6255131 -19.5707626   4.2686572  23.2078838 -30.2360096
   4.8562570  22.8169746 -30.8896523   4.3123546  24.1545486 -30.5180969
  11.9253693 -30.5164165 -28.4905109  12.8145657 -30.1176434 -28.4703484
  12.1639690 -31.4213791 -28.7610722   9.7680950 -20.9571743  16.2459450
  10.3007145 -20.8219910  15.4244432  10.1281366 -20.2194901  16.7780819
  -4.4690347  21.4457855  35.3097572  -4.2149601  20.6944904  34.7494354
  -5.3187408  21.0201626  35.6903954  19.7945385  12.5097179  28.5941410
  20.2540417  11.7170210  28.2185421  19.4731579  12.8571806  27.7231789
  17.7560463  33.3776817  25.2316971  17.9087772  34.0348892  24.5582867
  17.7688713  32.5731430  24.7264290  18.3558350  -5.8745151   8.0508795
  18.5259781  -5.9308362   9.0166960  18.6945877  -5.0028219   7.8346639
 -21.3278656  19.3629398  25.4897919 -21.2845440  20.0635738  26.1394348
 -20.8801365  18.6783714  26.0629158 -25.3894711  12.7981873  16.1709690
 -25.5662079  11.9339209  15.8271513 -24.6447105  12.5626049  16.8230286
   1.5947026  22.9718170  36.9806557   1.5485618  23.6651325  36.2203102
   1.9663281  23.5661755  37.6846161  17.7087727 -35.7927132 -24.5565395
  17.2828541 -36.6025620 -24.4179058  17.2666855 -35.2015190 -23.9028378
  -2.0126464 -34.6305161 -17.0197887  -2.4550397 -33.9458656 -17.4490395
  -2.6169536 -35.3777313 -17.1651878  20.7582703 -19.7547531 -14.2476873
  20.0078506 -19.9426880 -14.8007793  20.7746201 -20.5173645 -13.6514387
  28.2566185 -28.7209454  -4.5372248  27.3425846 -28.4071083  -4.8000689
  28.7315407 -28.3562946  -5.3198271 -18.9695969  37.9405594 -28.0415649
 -18.9828892  37.4159241 -28.8500500 -19.9078884  38.1073532 -27.8855400
  35.3157234 -20.7970314 -18.6124458  36.2623329 -20.8523140 -18.3509579
  34.9188538 -20.2519836 -17.8964100 -15.8860073   2.7348967  -0.5908030
 -15.6964550   1.9940850   0.0524633 -14.9771090   3.1793633  -0.4384569
  16.0330200  23.2654781  15.6127148  15.9860210  23.9400768  16.2802238
  16.2585564  22.4771614  16.1291180  39.5989189  10.4876652  30.6198559
  40.1642761  11.1913328  30.4343338  38.9860115  10.8331270  31.2551975
  28.5966206  23.6337147   2.6703100  28.1699448  23.6352425   3.5418124
  29.2875195  24.2574329   2.8280485 -27.1550903   4.0644984 -33.6107521
 -27.5262947   4.5447412 -34.3814697 -26.2749119   3.8324103 -33.9769859
 -40.5795631  11.6368351   8.3891287 -39.7946053  11.7339039   8.9443083
 -40.9340935  12.4868631   8.3434200  32.5602531  -9.9397793 -17.8033695
  31.5848122 -10.0287209 -17.4283543  32.4659691  -9.0926371 -18.2213726
   8.3814325  48.5499077 -12.3307676   8.1954365  48.5488319 -11.3966799
   8.4303112  49.5369797 -12.4763699  37.1103897 -26.2153854 -16.5902901
  36.0834579 -26.0611668 -16.4268703  37.1283340 -26.1241875 -17.5536709
 -29.2720051  34.9394379 -10.8095522 -28.7486782  34.1523933 -10.5023937
 -28.5193977  35.4732780 -11.1926165   0.8658056   8.9774437  -4.0427861
  -0.1110191   8.9699564  -3.7417369   0.8272362   9.6925316  -4.6775475
   1.2212833 -18.6775341  26.5727959   0.8646899 -19.4524899  26.1014671
   2.0490918 -19.0489368  26.9146671 -18.1987476   0.2917500  -4.7687855
 -18.6879005   0.8806818  -5.3938613 -18.0535793   0.9495214  -4.0239172
  16.2259235  13.8788948  35.7627640  15.9399805  13.1084671  36.3508492
  15.3011160  14.1995592  35.4792290  41.1765709 -14.5513382  -9.3422508
  41.5218811 -14.5724754 -10.2138863  40.7289772 -15.3758888  -9.2384968
  34.2528954   8.1223602   2.0480571  33.7879410   7.4266653   1.5634216
  34.0581169   8.8824730   1.4112124   4.4646168  48.2170601  -4.5471578
   4.6574922  47.3941765  -4.0870552   3.8740327  47.8610687  -5.2509742
   9.2285986  -5.8521037 -36.5116653   9.7479239  -6.1687512 -35.6902008
   9.9641905  -5.1789808 -36.7941818  -8.7282448  40.9558411  -7.9828300
  -8.0545721  40.4215469  -7.5655179  -8.3059435  41.2975960  -8.7619429
   8.5642309  -9.5912552  46.4691010   9.3502960  -9.8865986  45.9674339
   8.0076742  -9.2290602  45.7283592 -23.5419064  18.5549583 -38.9702606
 -23.2191238  17.7057037 -38.4907303 -22.8476810  18.7757339 -39.5522995
 -15.5610771 -49.0848808   2.6132298 -14.7255020 -48.6774406   2.7378976
 -16.1599522 -48.5655823   3.1614449 -13.5141830   1.1353898 -17.8501453
 -14.3779211   1.1423365 -17.3094406 -13.8344307   1.2448316 -18.7390156
  27.6628895  14.5507431  -9.0186720  27.5133343  13.6548996  -8.6521959
  26.8362923  14.9428473  -9.0508833   5.5369315  20.1725216  24.9538631
   5.4707618  20.5629330  25.8637714   4.8166785  19.5068474  24.9491997
 -19.7785339  36.3693199  20.7696190 -19.9448700  35.5723572  20.2254391
 -18.9427795  36.7167740  20.3922443  -3.1578693   4.5799136 -36.8326874
  -2.6953292   5.0461359 -37.5101509  -2.6652608   3.7050588 -36.9198456
 -12.4721231  17.9174709  36.6848259 -12.4268589  18.1698475  37.6342773
 -11.9693174  18.5477428  36.2396317 -39.8631477  -2.4973068 -11.8275642
 -39.1037178  -3.0376174 -11.4519758 -40.4797211  -3.1525588 -12.0872793
  -3.1248426  21.0155678  22.4494953  -3.8922329  20.5711155  22.8203354
  -3.2879212  21.9180069  22.8959084  22.9926357  15.5425177 -10.1659584
  22.0370388  15.6907091 -10.1738920  23.0449333  15.0092745 -11.0283327
 -21.8873234   7.4052501  41.6566048 -22.0590897   8.3620262  42.0342331
 -21.0017471   7.6383495  41.3254471 -18.2752991 -10.5259123  28.5459690
 -17.2824955 -10.6774712  28.4773064 -18.5086193 -11.4356079  28.2084122
 -24.7619781   4.1754627 -37.5665016 -24.0253468   4.5816479 -37.9783096
 -25.3566494   4.0008817 -38.3211555   7.6759286  44.5177231 -10.7405624
   8.0840178  44.9870491 -11.5209360   8.5291748  44.1762695 -10.3114796
 -18.9268112  16.0050850 -43.6218834 -18.3685093  15.2711821 -43.9399033
 -19.4063873  15.5226030 -42.8821793  10.7479305  -8.6855907 -11.2536783
   9.9387703  -8.5352583 -10.7757416  10.4481764  -8.9025364 -12.1398344
  -2.6823125 -38.3011322 -13.2834578  -3.4553115 -38.4264336 -13.8570385
  -2.0723276 -37.7898140 -13.8902597  16.4352551 -36.0586967 -36.0682716
  16.7921314 -36.9457474 -35.8059540  16.3343887 -35.6338081 -35.1863480
 -35.2398605   4.6622620  16.3623924 -34.5607071   4.2007952  15.8456068
 -34.7360649   5.4156446  16.7744656  44.0244522  31.7669125 -13.0833874
  43.1547241  31.4728374 -12.6214409  44.1459579  31.0333652 -13.7094736
 -10.1365423   3.0221090 -47.9892540 -10.7904110   2.8480728 -48.6948929
  -9.3184853   3.0249646 -48.6265373   1.6664395 -20.0884686 -37.3612709
   2.5507045 -20.2033558 -37.7096977   1.1927178 -20.3040791 -38.2633057
  13.2990885  -9.9098778 -21.1903267  14.0610609  -9.2738218 -21.3382645
  13.8432312 -10.5034962 -20.5632915  21.0474796 -13.1607561 -20.5795937
  21.6621418 -13.2028904 -19.7933769  21.7266006 -12.8876419 -21.2684422
   3.1679356  37.7048035 -10.8165779   3.9310539  37.0881882 -10.5047750
   3.0044937  38.1692543  -9.9710064 -39.6646996  23.5065269 -19.3964176
 -40.0199318  23.7208538 -20.3123684 -39.7051659  24.4347534 -19.0621510
   5.2620711 -37.5556030 -28.6201935   5.0908227 -38.5984840 -28.5076313
   4.3998113 -37.3190308 -28.1724052 -20.7173538  -2.8655815  38.1004181
 -20.2899170  -3.5288308  37.5709534 -20.0480309  -2.6278753  38.7638168
  31.4338398  23.5153465  -1.7926047  31.4417992  23.0759640  -2.6914580
  32.1634178  24.1673431  -2.0230598 -35.2526588   6.2147479  35.1597672
 -34.9023247   5.3590426  35.1412163 -34.6830368   6.5814118  35.9453239
 -15.2002411  19.7067833  25.6517544 -15.0301800  19.8108864  26.6179829
 -14.2818460  19.8858337  25.2537785 -13.5769300  39.7330246  24.8766842
 -13.7005663  40.2185287  25.7179871 -14.3066683  39.0799179  24.9613743
  20.4410095  -7.3873982  20.9515438  20.5132008  -6.4323115  21.3270893
  21.2420959  -7.3789573  20.3428593 -21.8379841 -26.0100574  -1.9095566
 -21.5297585 -26.4090538  -1.0381812 -22.1487350 -26.8304024  -2.3888526
 -13.9390202 -42.3855476   2.0484815 -13.2458725 -42.1293831   2.6264386
 -14.3100891 -41.5597610   1.7316567 -10.3104057 -24.8211403  -2.4004703
 -11.1196508 -24.6696739  -1.8486722  -9.9401503 -25.6307735  -1.9256978
 -34.6408157  11.0247707   1.0541049 -35.0070686  10.1438999   1.2693466
 -35.4427071  11.5380812   1.3872974   0.5817115   4.3982315  44.7831535
  -0.4177282   4.5185361  44.8799553   0.7071902   3.5360301  45.0428619
  31.1648808 -33.6613808 -17.9827442  31.7690907 -32.9759903 -17.6130562
  31.0855331 -33.3649864 -18.8993187  -5.9583502  36.0033035  28.3279858
  -6.3567762  35.0936050  28.2247257  -5.8957977  36.2553444  27.3730221
  -6.6817265  22.8569794  22.3412647  -5.9432607  23.3588028  22.6290932
  -7.4322667  23.4343281  22.5844936 -22.3701000 -27.0407333  13.6793242
 -22.9487133 -26.6519127  13.0011044 -21.5448608 -27.1646957  13.1621580
  30.5960655  -9.6011219   2.5487225  30.0869293 -10.3400269   2.3835974
  30.9881268  -9.6827145   3.4274881  23.5007038  12.4902391  27.7975464
  23.9949627  12.3302727  28.6692944  22.6641445  11.9432383  28.0784531
  22.0660095  19.7593861  -5.6485305  22.9290810  19.6419525  -5.2378702
  22.3109589  19.9535522  -6.5469537 -34.7595634 -28.1172161 -23.0277462
 -35.3266487 -27.9605103 -23.8419914 -35.4371223 -28.2939110 -22.3386974
  30.8479862  -3.6237862 -39.9841614  30.0276089  -3.9465244 -40.4204903
  30.9790840  -2.7765348 -40.4753151  20.6552753 -30.6976051 -34.8645973
  19.9708080 -30.6340752 -35.5997200  20.4675369 -29.9086723 -34.3047333
  32.2184830 -30.6751461  13.1504774  31.5264969 -30.3096428  13.6631794
  32.9325943 -30.7390690  13.9034939 -17.1650391 -30.9363708 -27.4062843
 -17.4622765 -31.7049236 -26.9295082 -16.5012436 -31.4289055 -27.9789734
  17.2068596  15.0885725 -25.7987576  17.1499691  14.5369635 -26.6032562
  16.7417126  14.5061903 -25.1473904 -39.4460526  14.4640732  -6.2937212
 -38.7990952  14.5976667  -5.5282822 -39.4119225  13.4670238  -6.2583838
 -10.9646864   6.0572953 -49.6090012 -11.0419436   6.9495282 -49.9078865
 -10.7090521   6.1844597 -48.6526985  33.2557983 -17.3165627  28.3159256
  34.0554199 -17.7532253  28.6438599  33.1826935 -16.5344086  28.8478088
   6.5623407  41.1281967  -8.2382116   6.5662665  40.8321152  -7.2636938
   7.1824841  41.8736610  -8.1245251 -38.2027893  30.5553932   2.1741021
 -38.9367104  31.1987095   2.2558711 -38.4435043  30.1834145   1.2750566
  29.8999271 -16.9284496 -38.4335518  29.3797398 -16.8279896 -39.2631416
  29.7554836 -16.1457214 -37.9150925  17.6493778 -31.2177868 -10.3171997
  17.6091175 -32.2234802 -10.4330931  17.8280354 -30.9486866 -11.2169142
 -16.7854290  30.3707218 -15.9092808 -15.9893570  30.6082897 -16.4625130
 -17.3205166  29.9270401 -16.6220608  15.0412683  10.7548971  14.0148315
  14.6202087   9.9311781  13.6532078  15.2009153  11.2288656  13.1495323
  19.4222641  10.7016306  34.7455025  19.2737579  11.4214144  35.3779564
  18.6113930  10.1830111  34.7800140 -22.0795021   3.0676618 -29.3604221
 -21.2682705   3.4900351 -28.9852619 -21.9848423   3.1815085 -30.2902088
  16.5802536  -3.4142027   2.0741224  16.7066288  -3.5530403   3.0765123
  16.1217480  -4.2483015   1.8709319   9.1215410 -28.9553852  -1.5302495
   9.7806587 -28.8159771  -0.7952011   8.7265491 -29.7988396  -1.1180829
 -20.3988266 -17.2843895  34.9667473 -21.2314873 -17.4893990  35.4200706
 -20.0437660 -18.1367607  34.6454506  -2.0216317 -16.0306339  37.4146080
  -2.9052713 -16.2609234  37.0932465  -1.7605623 -15.4358988  36.6139183
 -28.9700832  27.9557972  -5.8512731 -28.3554783  28.3523560  -5.1455927
 -29.6344585  28.7160187  -5.7902069 -20.0909920  -1.0340828 -34.5549278
 -20.4161167  -1.5028512 -33.7712784 -19.5955563  -0.3054288 -34.1345673
 -10.8964958  16.4023075 -37.1113167 -11.2643623  17.2244244 -37.5313683
  -9.9410791  16.4205055 -37.4080124 -43.3619614  -1.7347502  34.7573814
 -44.0058937  -2.2449288  34.1870232 -44.0145340  -1.3019594  35.3852806
 -25.8198299  -0.8380330  31.8832512 -26.3292236  -1.6108239  31.5571289
 -26.5102253  -0.2964164  32.2934074   0.3300547 -35.6787491  -1.2555430
   0.1836608 -36.5821152  -1.5258789   1.1563065 -35.5168037  -1.7444736
  17.7396374  18.0937576 -11.9131565  17.1614552  18.0614452 -12.7089930
  18.5679092  18.5257454 -12.1506004   0.7077752   0.1505703 -36.5155602
   1.2315805  -0.3195309 -37.2075615   1.3147465   0.0350164 -35.7551422
  23.5063992 -32.0404854  -2.5303106  22.8412933 -31.6105633  -3.0585310
  24.3207436 -31.6388817  -2.8566234 -23.8656712  -7.7206545 -31.4098949
 -23.0423775  -8.2366619 -31.4075947 -24.0274353  -7.6286592 -32.3707085
  11.9260063 -27.7894077  -1.3659266  12.7799320 -27.4109097  -1.1537819
  11.7841320 -28.3962193  -0.5831686  32.0815392 -19.6768665  -1.9387937
  32.1727333 -19.5295410  -0.9295084  33.0143929 -19.8077965  -2.2215269
  14.2886639  20.7408009 -21.5261440  14.9073925  21.4673500 -21.6394272
  13.8627396  21.1657982 -20.7271366 -41.8310280  -8.3823662  18.9165421
 -41.6005058  -9.2695122  18.5185757 -41.3137283  -8.5151730  19.7812462
 -31.0684280 -39.2076111 -16.0451050 -30.4041710 -39.9353333 -15.7540140
 -31.7309322 -39.2644196 -15.2889919   1.7349075 -30.8209362 -30.3181362
   2.2636170 -30.3613224 -29.6796703   2.4165678 -31.2048302 -30.9373493
   1.1385624 -24.8661728 -35.7651749   1.2533756 -23.8646107 -35.5903473
   0.8704025 -25.1935196 -34.8827782  35.9565735  36.7214317  -6.1464181
  35.1155396  36.1995049  -6.1977911  35.6362267  37.5454826  -5.6806293
   3.9212875 -33.8992462 -28.1213493   4.0637116 -33.7607689 -27.1592731
   3.2421150 -34.6253967 -28.0692081   3.0634892  -8.5018072  -1.6098843
   3.4608445  -9.3446798  -1.4349663   2.4326167  -8.6713371  -2.3298736
 -22.5372334  -0.3261136  -5.4660506 -23.2251797  -0.9888572  -5.2061515
 -21.7522392  -0.8693828  -5.2723160 -12.4688530 -46.7563896  19.7452564
 -12.6597309 -47.4001541  20.4748268 -12.5584011 -45.9715729  20.3561230
  27.0049725   7.9719625  32.5657501  26.0559998   7.7143593  32.6113396
  27.3257141   7.5506220  31.7583027 -30.1981106  11.1893463  16.4320259
 -30.3379536  12.0363359  15.8989220 -31.0321960  11.2617464  16.9930954
 -37.6956863 -35.5707741 -13.9504795 -37.1033783 -34.8417435 -14.3614149
 -37.0970840 -36.3499603 -14.2116470  -9.9954100  11.1459332  23.0363426
 -10.0060930  12.1151342  22.8771591  -9.7546873  10.7504454  22.1734982
  16.5648708  -2.4308221 -46.9554710  16.9431477  -3.0279572 -47.5312805
  17.1085033  -2.4099860 -46.1748505   3.3355734 -15.2235336   0.1479857
   3.8238897 -14.5092211   0.5390967   3.5837095 -15.1653347  -0.8256878
 -41.6956596  -3.5379725 -19.3374519 -42.6849976  -3.5385470 -19.2705269
 -41.5899773  -2.9031661 -20.0831394 -26.3127174 -42.3011169  -3.7509332
 -26.4945030 -41.9067307  -2.9369752 -26.5351028 -43.2472954  -3.6038241
  27.1831951  40.4134598  -0.7859098  27.4673862  40.6534462   0.1409520
  28.1187744  40.0746460  -1.0561761  15.9511700 -15.3741407 -21.0625114
  15.4159288 -14.8304100 -21.6931744  16.8383389 -15.0585365 -21.2819538
 -38.1745110  28.5138760   8.3624105 -38.0226326  29.2966442   7.7830715
 -38.8360443  28.8572102   8.9694748 -43.9346886  -3.7776465 -24.2611847
 -43.3142014  -4.4668741 -23.8562222 -44.2413864  -3.3291540 -23.4325333
 -21.9694042  -0.9082584 -31.9172039 -22.4096241  -1.3938938 -31.1423244
 -21.1768970  -0.5708430 -31.3955994  42.9116592  10.3138552  26.4514885
  42.3857613  10.0962667  27.2279758  42.3355331  10.8687611  25.9468822
 -23.7998066  -0.4740717 -19.3473167 -22.9999886  -0.9949338 -19.0695267
 -24.4649639  -1.0777017 -18.9452381  20.6706181  45.7929306 -16.9322052
  20.0918827  45.5735321 -17.6854267  21.0139523  46.6677055 -17.2547798
 -26.2043438  10.3568678  14.8867922 -26.2589722  10.4117928  13.9234056
 -27.1028652  10.0873766  15.1225319  -3.6342611 -26.1985607  31.1911888
  -4.1914353 -26.9283943  30.9122410  -2.9921880 -26.1046104  30.4447708
  -9.0174227  23.2602139  -9.2505150  -8.6864967  23.6018448  -8.3707247
  -9.2590265  24.1379623  -9.6966534   9.5506115   8.1005259  30.1848030
   8.7480736   7.5159168  30.2783794   9.1223154   8.7606726  29.5542698
 -14.7199402  10.8634825  50.7107124 -14.4240875  11.2423487  51.5909042
 -13.8421097  10.7700901  50.3307037 -42.6449051  14.6926107 -18.6283817
 -43.2106209  14.0162344 -18.8394318 -42.7989273  15.3201962 -19.4211769
 -20.2538910 -43.0551949  16.2863159 -20.9207344 -43.2524147  16.9299583
 -20.0065994 -43.9266434  15.9108410 -18.5156803  -5.7994337  18.5283260
 -18.9338856  -6.6783357  18.6959324 -18.7451763  -5.6894855  17.5624504
   1.4880455 -10.8901825   6.3090639   0.6987815 -10.7969036   6.9303031
   2.1382318 -10.3900728   6.8678207  43.5087013  28.1043720  -5.3677754
  43.2746468  27.9725170  -6.2841563  43.9026794  29.0060787  -5.3919668
 -14.4526310 -19.3577843 -32.1360779 -13.6912832 -19.0978336 -32.7232170
 -13.9120722 -19.9688511 -31.5364151   4.5351858  46.1665611  -2.8105700
   5.0472941  45.7338181  -2.0669994   3.6184947  45.9631538  -2.4553170
  -9.4567900  -5.6755891 -28.9349022  -9.3667297  -4.7918010 -29.3019943
  -9.9781685  -5.4857206 -28.1412182 -32.1245918  24.9732876 -22.9053020
 -32.5643082  24.5653839 -22.1071777 -32.8107910  24.8390617 -23.5910587
 -24.4735088   7.2877302  32.0327835 -24.6434078   6.4380670  32.5349655
 -25.0768528   7.9202900  32.4176483 -34.3545341  23.8350468  29.0371361
 -33.9669189  24.6792240  28.5860424 -35.1711388  23.7452812  28.4801426
  13.4641809 -22.2191124   7.2845488  13.3865681 -21.2176685   7.3478894
  14.3798285 -22.3183384   7.6369700  35.4191818 -19.4841709 -20.9687786
  35.2372246 -20.0251675 -20.1529408  36.2226486 -19.0039711 -20.5230980
   3.3273668  29.8130608 -16.2150402   3.6004975  29.2772942 -15.4497843
   4.1716328  29.9457054 -16.6683826  14.1314411  -1.5788873  39.1964417
  14.6458139  -1.5586115  40.0732803  13.2741613  -1.2592275  39.5428123
 -15.7525692  40.3436508  14.5494299 -16.1003208  39.5141335  14.9552069
 -14.7987089  40.1357307  14.4898396  -4.2795429 -45.8780212   0.9565298
  -5.0851045 -45.3888702   0.8152219  -4.5578995 -46.8085861   1.0332596
 -31.0625572 -17.7848492  10.2596197 -31.0392265 -16.9102211   9.8774252
 -32.0204277 -18.0217781   9.9300900 -26.5323753 -25.8086815 -10.7310791
 -26.9242573 -26.0863037  -9.8664694 -25.5743084 -25.9867744 -10.5388098
  -9.4249153  17.4956551 -46.7271614  -9.4927053  16.5039692 -46.5666962
 -10.0454063  17.7655087 -46.0380898   3.1574917  16.3544540 -19.8780308
   3.9098892  15.7455111 -19.9918213   2.9998560  16.2786980 -18.9245872
 -17.6439724  -0.3130408 -28.3399754 -17.9744568   0.6114685 -28.1344032
 -18.0624466  -0.8435235 -27.5809536 -37.7759399  17.2506084 -27.4345798
 -38.0360184  18.2114201 -27.4079590 -38.1281471  17.0484333 -28.3247795
 -17.9346638   6.1205263 -43.3110428 -17.8333893   6.7234211 -42.4604378
 -17.0727901   6.4346690 -43.7390327  -0.9404234  29.2875957  -9.4133348
  -1.6983103  29.8751793  -9.1422634  -0.9996467  29.3859138 -10.4087048
   2.8352997  21.0384884  21.9532185   2.8946552  21.6958561  21.1772709
   3.7547066  20.6346378  21.8104649  -9.3433132 -45.9345284 -17.8979511
  -9.1062717 -46.4485817 -17.1280556 -10.3205223 -45.7820511 -17.7235985
 -36.2147598 -29.0930061   2.7093024 -35.3062286 -29.0815353   2.3480597
 -36.1539574 -29.8161259   3.3185339  34.2745399  14.4513817   3.1897995
  34.8297844  14.2923050   3.9658275  34.5599976  13.6825075   2.6026397
  29.7972641 -31.2458019  16.7414894  29.4072342 -31.3940926  15.8010149
  29.4663677 -32.1002121  17.1766872  16.0066185 -32.6205482 -36.7402344
  16.1832829 -32.1726303 -35.8933487  16.7921944 -33.1972847 -36.7652626
 -24.3062096 -14.1978302  20.9945335 -24.6348534 -14.9943743  21.4317589
 -23.3499031 -14.2919540  21.1467819   6.7305336  20.9387703 -10.4370127
   6.0963798  20.4621334  -9.9225731   7.5613666  20.6696110  -9.9953413
  -1.9565698  -8.3635492 -41.7660713  -1.1968565  -7.7506590 -41.5335770
  -2.6363254  -7.9686365 -41.2150269  30.8727722 -10.5214262 -34.7026520
  30.9698162  -9.7418385 -34.1924133  31.5167751 -11.1297522 -34.3431320
  -8.7455301  -9.1483860 -13.9528303  -8.8224602  -9.8030252 -14.6378222
  -9.7043047  -9.0826311 -13.7481394  22.4152470  46.2936630  -6.6792755
  22.0274696  47.1024323  -6.2269230  21.5758686  45.7507668  -6.7235727
  -7.9889145  -2.5169408  29.4909897  -8.9381304  -2.7118459  29.5452080
  -7.5708232  -3.3643613  29.6445332 -26.8828583 -25.3749180  11.2345476
 -26.9612293 -26.3919697  11.0293970 -27.0072098 -25.1121254  10.2978926
  43.4547119  19.8369064   8.7071514  43.7818375  20.4981899   9.3591681
  42.9132957  20.3818703   8.1278419 -12.6431370  19.5020103  13.7876129
 -11.7108803  19.6527119  13.9036064 -12.9838696  19.8836536  14.6621180
  41.8660088   8.1365604  11.4236994  42.7670822   8.5602903  11.4706364
  41.5967064   8.3754892  10.5471420  -4.0552173  14.0923100  13.1698227
  -3.2255104  14.1817617  13.7038841  -3.8440464  14.7000217  12.4455099
  18.5755749  34.4923553  20.3633423  18.2947273  33.9333916  19.6018982
  18.2210922  35.3577805  20.0872536 -23.4115906  23.0645390  -2.7569063
 -24.2492981  22.6027832  -2.7339547 -22.9312382  22.5611610  -2.0464113
  15.8272715 -27.6314659  29.7714863  16.3751945 -26.9248352  29.3436775
  15.1696615 -27.7706203  29.0623112  34.7062836   7.0576630  34.6025162
  33.8588905   7.4264755  34.3480377  35.1981697   7.9033942  34.6214905
 -31.3854103 -11.0712938  29.8568649 -31.4936943 -12.0397596  29.7683468
 -31.1886940 -11.0373220  30.8417702 -14.7099600  -9.8773041 -20.1287060
 -14.5356817 -10.3351717 -21.0140457 -15.6665306  -9.9375534 -20.1063805
  21.3834133  -2.3013959 -24.5642948  21.1105976  -2.2248700 -25.5302258
  22.1014042  -2.9672935 -24.6622963 -25.7229500  -1.1063491   5.5093579
 -24.9898396  -0.5344751   5.1955938 -25.5189114  -1.0785345   6.4890103
 -21.8701744  11.4818144   8.9134436 -21.9234104  10.9589233   8.1065197
 -20.9119778  11.6181221   9.0324936   4.6956720  31.4442272 -13.6827936
   4.0094552  30.7901077 -13.4484425   4.1122932  32.0159988 -14.2650976
  19.5352745  -7.8295360 -24.4264221  20.5347805  -7.8421597 -24.3721943
  19.3683186  -8.7689276 -24.3918591   8.6295080  40.8378067 -25.1879101
   9.1371231  41.6630211 -25.1963978   8.6031694  40.6816940 -26.1238899
 -30.0149670   6.2741427  24.8828049 -30.1162834   7.1145926  24.3293781
 -29.0017624   6.1795177  24.7269592 -41.3806114 -33.1584053 -13.0702667
 -40.8871994 -33.5855789 -12.3119850 -42.2556229 -33.1938782 -12.6813040
 -22.7266483   7.2258034 -14.1990681 -21.8490868   6.7934518 -14.0873089
 -22.7236423   7.4366970 -15.1229115  14.2795153 -32.9432449 -17.6386299
  13.4058523 -33.0751038 -17.2164841  14.1170273 -32.0601616 -18.1043835
   9.8548765  10.8748293  17.6136856  10.5187244  10.6939096  18.2902889
   9.9623470  10.1093140  17.0327091  15.9801483  -6.9504027   7.0732784
  16.0162010  -7.7295423   7.7164593  16.9578228  -6.6414404   7.2099185
 -31.0341835   4.7697072  -9.2305241 -31.9125366   4.6015716  -9.4470692
 -30.8434639   4.0198474  -8.6106100 -24.2731380 -14.0085707  33.6124077
 -24.3569279 -13.5890198  34.5358505 -23.7506256 -14.7721806  34.0397720
 -30.0773087  14.4216185  32.9449768 -30.4307404  15.3674908  32.9083939
 -29.9813404  14.2911215  31.9847679 -33.9109650  -4.0295696  19.8791809
 -33.5305901  -4.8508248  19.4453259 -33.3124084  -3.3633189  19.3993073
 -27.3406563  29.5561771  -3.9964206 -27.2960453  28.7757835  -3.4297099
 -27.5842228  30.1904106  -3.2842877 -43.1283112 -18.2753391   6.1645389
 -43.7950287 -18.0048637   6.8009667 -43.7206993 -18.5075397   5.4372568
  25.7292938 -19.4690189  36.3904228  26.3642521 -20.1419468  36.1060562
  26.2301483 -18.9396858  37.0694008 -17.0122337   7.1610899 -21.1620407
 -17.6296997   6.7339697 -20.5315704 -17.4846840   8.0039358 -21.3432426
  42.3642044  28.4882069 -11.6345348  42.1428680  27.6235790 -12.0591564
  43.1056137  28.2351341 -11.0033321 -11.3041401   4.2478571 -26.9570293
 -10.3983812   4.2286568 -26.5892086 -11.8562994   4.5949607 -26.2075310
  15.4050484  25.2838917 -22.5503483  14.4134626  25.0369358 -22.4993362
  15.4716997  25.3874683 -23.5031796 -27.9268284   0.1780243 -18.1074467
 -28.1700153  -0.6480842 -18.5000286 -27.5252247   0.5950084 -18.9241791
  27.1550961 -14.7708673  -3.1019607  26.5747643 -14.3043871  -3.7205949
  27.0075607 -15.7288065  -3.4404862  27.1671677  -6.3446789 -46.4501038
  26.6316929  -5.6413541 -46.0146179  26.6951923  -6.3792648 -47.3400612
  12.0890589 -17.2230053  10.0312471  11.7928572 -18.0575352  10.2568541
  13.0632315 -17.3639183   9.9413567   3.8994558 -28.4788914  34.2216263
   4.6776447 -28.1287308  33.7596283   4.3169651 -29.3308544  34.4819832
 -16.9402580  17.3510361  43.6070671 -16.0192757  17.5451107  43.9270020
 -16.7768993  16.5108624  43.1492615  17.1012154 -10.0973244 -22.4907379
  17.4833126 -10.4506149 -21.6786766  17.7581158 -10.2824430 -23.1553173
  -1.6263521   6.3575449 -38.2944374  -1.2873424   7.1155519 -38.8052139
  -1.5196267   6.6543813 -37.3415375  24.8439579 -37.4628448  15.1679068
  25.5636253 -37.7109032  15.8236046  24.9664650 -38.2593765  14.6074953
  10.2777119 -24.5282364 -29.5734272   9.6540298 -23.9871635 -30.1734467
  10.1943789 -25.3553925 -30.1040096  28.3419266  32.8464050   7.7355461
  28.0192204  32.5164986   6.8509817  29.0607986  33.4098053   7.4364982
 -19.3225079  -5.3517623 -24.2031536 -18.9675350  -6.2676849 -24.1627350
 -18.5568752  -4.8312550 -23.9256783   0.7004508 -16.9159546  43.6925583
   1.3976701 -17.3460999  43.1467667  -0.1210177 -17.1365719  43.2836533
  29.2478428  -6.1411819  14.1158590  28.7441807  -6.9690871  14.2999344
  30.1490688  -6.4353595  14.4527388  13.8495140   3.8853264  21.9361362
  14.6166878   3.7443814  21.3556309  13.6983681   2.9720762  22.2494926
   6.2436447  42.4876022  18.2150192   6.2177663  41.6791229  17.6175652
   6.5228829  43.1787796  17.5581799  15.6446295   3.3381739 -16.1695499
  15.3181601   2.5689266 -16.7801857  16.1457424   2.7307172 -15.5150986
   4.9654136 -17.3253307 -30.7556896   4.1371937 -16.9441051 -30.4496212
   5.3419232 -16.5676060 -31.2286549  -1.6380023  12.0468273 -17.7240429
  -1.6441121  12.6301508 -18.4822407  -0.8004626  11.5244627 -17.9017105
  -6.5933657  -5.9362645  -1.1029501  -5.9896722  -6.2354307  -1.8171597
  -6.7576194  -6.8199806  -0.6587815  37.9831314  17.2553406   0.7236643
  38.7626762  16.7641716   0.4118304  37.4030418  16.5128441   0.8371149
  38.5965538  13.8244305  -3.4594388  37.8105850  13.5952806  -3.9861505
  38.0945320  14.2457218  -2.7009928   1.9841406   5.5225306 -24.6343403
   1.5558703   5.7036481 -25.4982986   1.1281315   5.4694929 -24.1015606
   4.7047820  26.9061031   4.9003291   4.4286165  25.9408913   4.7641068
   4.0359378  27.0893135   5.5988474  11.2832518  41.0020294   3.2960916
  11.2510452  41.9575081   3.4139855  12.1466541  40.8010521   3.7960806
  17.7573662  29.7596455  18.9979782  18.1501274  30.6516209  19.2595673
  18.3164291  29.1830673  19.6186333 -19.8642654   8.3508816 -49.6148415
 -20.6148605   8.5519066 -50.1886940 -19.2503071   9.0505781 -49.9345016
 -38.1604462  11.1599255 -10.2855301 -38.7939110  11.9222250 -10.3789825
 -38.5196609  10.6070271 -11.0522776 -24.8699417   8.3206863  15.9951334
 -25.5668869   8.6406851  15.4375782 -24.8384838   7.3516440  15.7888117
 -41.9603386   6.1658034  10.8740721 -41.7821083   6.5456080   9.9695539
 -41.4402924   5.3606825  10.8443432  19.7860374  22.2391644  11.2302437
  19.3744507  21.6842613  10.5235825  19.0511665  22.3135853  11.8418608
  27.3751888   7.0095119  -6.3452086  27.1605339   6.1678863  -5.9448185
  26.5319824   7.2299380  -6.8605332 -15.2937088  25.3738308 -19.4493942
 -14.7731676  24.9146976 -18.7658405 -15.3683310  24.7307453 -20.1548042
   8.3290939 -15.3478441  44.5426636   9.0136337 -14.7427988  44.2525444
   7.5355959 -14.9269886  44.1857071  34.4729996  -9.1156778  -3.7724457
  34.1941299  -8.4342461  -4.3540993  33.9921913  -8.9199324  -2.9714231
 -36.6409531 -28.7067661 -21.1025181 -37.2683296 -27.9236412 -21.1808548
 -37.1578178 -29.3481522 -21.5924778  23.9855251  37.6266899   3.3754277
  23.0325489  37.3501053   3.2013545  24.4739437  37.0237503   2.8286114
  17.6052361  -7.8411722  -1.9504838  18.1399879  -7.5057778  -2.7550633
  17.7355976  -8.8269939  -2.0965490  14.8168201  -2.6299975 -12.9130688
  14.5353489  -2.8560903 -13.8037376  15.1981211  -3.4412642 -12.5689478
 -20.9298382 -16.4540997  28.5803623 -20.0949211 -16.6018372  28.1152287
 -21.3335342 -17.3509331  28.5210228  16.3178062 -20.5279465 -18.8082180
  17.1837311 -20.2504921 -19.1104565  15.7882652 -20.5771122 -19.6427135
 -19.6747494 -19.8034496 -10.6053667 -19.8696747 -20.6697712 -10.1071806
 -20.3906860 -19.2847462 -10.2443705 -16.6433430  40.2410355   8.9353085
 -16.7939625  39.7094307   9.7856436 -17.0682907  41.0470352   9.2294989
 -20.4553833  15.4895639  13.3207788 -20.9049454  15.1502008  14.0977430
 -19.8446331  14.7293463  13.1787405 -24.0889511  11.5495214 -29.9931965
 -23.8517704  12.2386160 -30.6799603 -24.1305752  12.0812054 -29.1680012
   0.5661408  28.5162582   5.2930045   0.3940578  27.5890293   5.3945770
  -0.2041196  28.9394684   5.7570739 -23.8649654  12.6132889  45.9183006
 -23.4995384  12.6482306  46.7847443 -23.1582966  12.3949747  45.3128166
  14.7192507  -8.1984024 -46.0069580  15.4528799  -8.8630171 -45.9850731
  14.9466000  -7.5904326 -46.6911087  35.5166359  11.9139452  31.3638878
  34.5699120  11.4757051  31.4656544  35.3468628  12.3629208  30.5152187
  18.0350819   1.0305395  -2.8459427  18.8092213   1.5506308  -3.1154282
  18.1258869   1.1129869  -1.8504020 -37.0425987 -11.1059942  -3.9558074
 -36.9333458 -11.6562128  -3.1988513 -36.8074875 -10.2164879  -3.6224377
   5.9053168  10.1408567 -22.0535316   6.0155997  10.5554476 -22.9001884
   6.0298376  10.9344797 -21.4591789  13.3681984 -25.7380104  29.3119202
  13.6491222 -26.0775414  28.4636116  13.1267481 -26.5489674  29.7975216
 -11.3098183  -6.7374296  -7.3899283 -12.1943960  -7.0537791  -7.2293839
 -11.1111469  -6.2654233  -6.5402918  32.9917984 -27.1650753  -2.9683616
  32.2244110 -26.5598621  -3.2623687  33.6867371 -26.6695385  -3.4035592
  -7.4194694  30.7010899 -16.8751125  -8.0777636  29.9001484 -16.8305740
  -7.8491635  31.1048126 -17.7016373  -6.9882350  -6.1709294  36.7706757
  -6.7395620  -6.3013749  37.6830368  -7.6882024  -5.4902477  36.8913536
 -37.8486900  26.2203217  -5.1217690 -37.9924202  25.2675438  -5.2593913
 -36.8072395  26.2292480  -5.1493897  25.4466705  -3.0356898 -17.2379913
  25.1039581  -3.8662517 -17.5238018  26.0508461  -2.7642403 -18.0027256
   1.5483209  47.4519081  17.8853512   0.7908629  47.5091743  18.4952393
   2.2920082  47.3473206  18.5295162 -18.4312782  32.1307831  24.1343784
 -17.6903133  32.8023911  24.1773186 -18.0052605  31.3717613  23.7429123
  37.0099525 -12.4795532 -10.9228182  37.9228859 -12.2272367 -10.9570446
  36.6858673 -11.9209490 -10.1166239 -22.3545055 -11.4177141 -33.3805962
 -22.6047230 -11.3470926 -34.3534889 -22.0907955 -12.4166784 -33.3701248
  35.4468422  35.4844856  -2.3612707  35.8554535  36.3229790  -2.1232810
  34.7852478  35.7848396  -3.0428004 -17.9123859 -30.2271729 -11.5967646
 -17.8490314 -29.9235268 -12.5539865 -18.6814289 -29.7408199 -11.2748585
 -17.0310535  29.0812073  15.1396551 -16.4563236  29.8792591  14.9443130
 -17.6544151  29.4980354  15.8052282 -10.2886362 -24.9317131 -28.3887444
  -9.8607502 -25.2375317 -29.2295017  -9.5252953 -24.4489765 -28.0348434
 -15.0768032  23.8304596 -21.6936722 -16.0266571  24.0392380 -21.6363468
 -14.9335995  23.8289280 -22.6726894 -16.5338058 -30.7140617 -14.9093580
 -17.2796040 -30.1406116 -15.0775976 -16.1821918 -30.8868694 -15.8079357
 -28.4278011 -36.1476326  14.6982594 -28.4003677 -35.2902260  15.1589203
 -29.2250805 -36.5458717  15.1147108  13.5579882  -1.1398460 -41.1683426
  14.2066317  -0.4916495 -40.8295479  12.7736692  -0.8399039 -40.6388779
 -35.4362373   3.8440850 -24.7575893 -35.0573120   4.2416120 -25.5637455
 -36.0197334   3.1735094 -25.1281967  17.1378517  -4.9012322 -48.3021927
  17.8493690  -5.5501943 -47.9478569  17.6817341  -4.4213543 -48.8930931
  12.6754131 -28.0443802  32.8664780  12.9576855 -28.9410076  32.5909348
  13.2580576 -27.5094357  32.2572327  31.6648045  31.8854332  20.6802769
  32.5414124  31.8291492  20.2522926  31.3507099  31.0089607  20.7067661
 -25.8234272 -33.0942230  21.9210434 -24.9437275 -33.0117378  21.4239197
 -26.1884422 -32.2226906  21.6904469  11.3597994  21.9237766   2.9310713
  11.2098598  20.9271488   3.0901699  11.3155689  22.2419472   3.8620737
 -18.4139690 -31.9081650  -9.6040468 -17.8392906 -31.9203587  -8.8512926
 -17.9366703 -31.2847595 -10.1906672 -14.0371351  26.2935982 -14.8780394
 -14.1508741  26.6913242 -13.9881926 -13.0693626  26.3676491 -15.0121155
 -14.6211300   5.0417295   9.4349566 -14.5820360   4.1336732   9.1519890
 -15.5234118   5.0962520   9.8098507  37.6541862  -3.3667572  30.8733158
  37.2124062  -2.6509323  30.3162746  38.2405510  -2.7595708  31.3475361
   5.6877198 -10.2810535 -39.4473114   6.1309633 -10.9168720 -38.8785210
   6.1309805 -10.5060196 -40.3358040 -31.2431393 -19.7113228   5.8163633
 -30.8875980 -20.5859299   5.9648480 -32.2070808 -19.8532448   5.9222360
  25.7098675  12.0426264  -1.6315401  25.3491631  11.1068344  -1.3667054
  26.1571541  12.2729855  -0.7932462  26.0184021 -24.9219875  19.7663383
  25.7800999 -24.0219498  19.9586544  25.3467369 -25.3742466  20.4132481
  25.1742935  -1.3981507  40.3300209  24.8077564  -2.2063663  39.8586197
  24.8902950  -0.7044576  39.7061577 -34.4340515 -34.6683388 -11.7836390
 -33.6033401 -35.1911163 -12.0208569 -34.4636383 -34.0608406 -12.5119200
   6.4170899 -31.3251419  10.0765877   7.3358774 -31.1384640  10.3223810
   6.0754819 -31.8630924  10.8492165 -38.8282318 -30.0623169 -19.0126705
 -39.1379929 -30.0369358 -18.0722904 -39.0799446 -29.1198673 -19.2383842
   2.0116012 -16.0853481  25.5749435   2.0166271 -15.4094810  26.2195702
   1.8208296 -16.9163017  26.0341778   1.8434697  16.7718430  -3.5310345
   1.4129515  16.0862770  -4.0822649   1.1230135  17.3859558  -3.3164778
  -3.3759966   1.3934765  13.0630779  -2.7952003   0.6461970  12.8282051
  -3.0782261   1.6079313  13.9330959  36.4358826   4.6935363  -6.5577550
  36.2922897   4.6033440  -7.5282345  37.3000221   5.1374521  -6.6071897
   2.0752730   7.8246355 -46.5954018   2.3849258   8.5123901 -45.9780045
   2.9429092   7.5329251 -46.9096184 -24.1222630 -19.9018726 -19.9390793
 -23.1412506 -19.8276882 -20.2675457 -23.8291931 -20.3160858 -19.0443916
 -16.1404724   9.1604433  -8.4730663 -17.0148201   8.6736031  -8.4608927
 -15.8372173   8.9170866  -7.5658751   9.4254398   8.9610052  41.9236412
   9.6830406   8.5394831  42.7385750   9.2092209   9.8063116  42.1591797
  20.9544411  34.8845558 -23.9772873  20.2980461  34.8060989 -23.2879143
  20.3695984  35.2424545 -24.7119007   2.2293699 -32.5286751  10.9987850
   1.4396313 -32.5293388  11.5757694   2.1365266 -31.6844273  10.5016909
  18.7003765  27.1204147   7.4958177  19.0237312  26.2438908   7.8098907
  18.1877460  26.8821945   6.6987128  -8.0461254   5.5177741  -4.5197897
  -9.0606976   5.5976915  -4.6852641  -7.9800348   4.5471396  -4.7226758
   6.9088726   4.0908394  -2.2429864   6.4418483   4.3512750  -3.0887694
   6.6844792   4.8653064  -1.7331716  28.1297874  40.7371788  -6.4685502
  28.8077850  40.3923569  -6.9901066  27.5209599  41.1693764  -7.1242099
  11.8905401 -34.0120430  22.7303772  11.4989977 -33.3414345  23.2153397
  11.3615084 -33.9911270  21.9276943  26.7182808 -19.0278301 -24.3488159
  26.3195152 -19.6297150 -24.9812393  27.5591660 -19.5545750 -24.1635857
  -1.0314416  -1.0044663  22.5784359  -1.1716427  -1.5510299  21.7526245
  -0.6706696  -0.2090013  22.1530361  -8.1784945 -31.3075848   6.0556674
  -8.5573320 -32.2139587   5.8480110  -8.1116571 -31.3620033   7.0503030
  11.2488651  10.7504911  -4.0298071  10.8001375  11.5429125  -3.8125765
  11.5818720  10.4783802  -3.1317263  41.4141464 -16.2457848   4.5429969
  40.4998512 -15.8143959   4.4506249  41.3339844 -16.5020390   5.4647517
  18.5716114  12.2470407  30.8726540  19.0282211  11.4017467  31.0473671
  19.0185184  12.4956999  30.0336742  -0.9511095  30.0325050  -1.7943056
  -0.7825357  30.7449112  -1.1313338  -1.8388143  30.3725624  -2.1345601
   9.2009907  -6.7035508  21.7488670   9.6588230  -5.8792238  21.4796352
   8.5486374  -6.7200141  20.9965115 -11.6778288  11.6299152 -15.7340908
 -11.6563654  10.7050371 -16.0904350 -10.9519043  11.5953245 -15.1086712
 -36.8250389   8.1382599  16.2295017 -36.3828087   7.7827773  15.4329205
 -36.8500595   9.1044664  15.9354572 -11.3722162  -0.1138741 -28.8372746
 -10.5217905  -0.2683445 -28.4110622 -11.7540684   0.6464319 -28.4142513
 -29.4528751  11.6542797   2.9130282 -29.8805542  10.8349037   3.3011038
 -29.5213089  12.2137108   3.7270916 -28.5808754  14.8948650 -10.2278023
 -28.2224655  14.2168674  -9.6144686 -27.9535351  15.6244898 -10.1479177
 -37.0477142  31.5564480  10.4343023 -36.5746765  31.1015873   9.6669092
 -36.2824402  31.6082172  11.0471535 -25.8553486  10.3023252 -27.6755047
 -26.2823086   9.4012098 -28.0003319 -24.9413986  10.0333052 -27.7820606
  -2.8929827 -28.3814468 -21.2443008  -3.6023498 -28.8069801 -21.7832775
  -2.8138721 -27.5207329 -21.5378838 -31.1882572  28.5348072 -14.1917696
 -31.4842033  29.2538071 -13.5506907 -30.5580502  29.0371132 -14.7231941
 -29.1708183  33.6199722 -26.1007156 -30.0524292  33.5567131 -26.4718895
 -28.8483810  34.4088020 -26.6302395  13.6093836   4.9881930   8.0864916
  13.1521759   4.4308481   8.6994057  14.1028156   4.2953477   7.5868483
 -23.9416828   9.3296652  40.1848717 -23.6356373  10.0578871  39.5850372
 -24.3670139   8.7203493  39.5576324  33.2045860  20.0874062  -0.0055414
  32.5100670  20.7871361   0.1908837  33.9690666  20.7108860  -0.1468136
  43.4802513  10.5337229  18.1119423  42.6938400  10.2384567  17.6550674
  43.1628036  10.4596558  19.0490437  11.9161825  13.2543964  24.0614357
  11.4779644  12.8386269  24.9020805  12.5341473  13.7486420  24.5602207
  35.5167656   6.7442665   7.9860268  36.1070747   6.5991373   7.2672100
  34.7082405   7.0654755   7.5347199 -43.2396355  26.5999947   0.5210073
 -42.8069534  27.3518829   0.0693950 -42.4580460  26.0318203   0.7300007
  38.6022987   9.3989801   1.9357731  39.0943298   8.6680412   2.3397543
  38.8897362   9.3812351   0.9987435 -30.7038269 -34.6101341 -12.4087248
 -29.8934364 -34.0974083 -12.2082682 -30.4835510 -34.8273697 -13.3252897
 -23.2921581  31.2134018 -26.2957878 -22.6374493  31.3194847 -27.0156841
 -23.5876122  30.2651443 -26.3895130  21.7709789  21.2354126  15.3106966
  22.3075562  22.0814323  15.3705997  20.9516029  21.7195358  15.6647482
  -1.9269185 -35.6780739 -23.4886265  -2.7104058 -35.3681068 -22.9116993
  -1.3348566 -34.9683762 -23.3463764   7.9335356  36.7200890 -24.4410915
   8.2055130  36.9428673 -23.5382843   8.6922245  37.1275368 -24.9733696
  -1.7862891 -24.2604733 -14.0064116  -1.7719492 -24.0233555 -13.0711555
  -1.0887816 -24.9387703 -14.0659103  24.5043736 -24.7767162 -15.6522408
  24.0023193 -25.4850922 -15.1630793  24.4099712 -24.0378742 -14.9977961
  28.0555191  29.3908539  10.3661442  28.3705502  28.5156364  10.7258072
  28.8133183  29.6684418   9.8423729 -27.1080914  12.5294886 -24.7441406
 -27.5432243  13.1720457 -24.1598396 -27.9412842  12.3572884 -25.2656364
  40.1130905 -29.2324352  -9.5990419  39.9473228 -30.2143764  -9.6284685
  39.1578484 -28.9432583  -9.6736937  13.5947580   2.3398457  38.2029648
  12.8258648   1.7537916  37.9542007  13.5372286   3.0158539  37.4886169
  33.0630608  32.8480148   4.8531466  33.6013565  33.3845024   5.4784985
  33.5146599  33.0194511   4.0379653  14.1752310 -10.6571970  42.9726372
  14.5476475  -9.8047857  42.6236000  14.5176992 -10.5901918  43.8894005
  -4.1996307 -18.6158218   0.6297351  -4.0181923 -18.0140266  -0.1095502
  -5.1853647 -18.6038055   0.6314393  15.6065140   4.8212686  43.5434074
  15.5310602   5.0931177  42.5943947  15.8104343   3.8776965  43.4249039
   8.9231701  25.0690174  10.1718702   9.5773983  24.3613968  10.0233240
   8.0914259  24.6016407   9.9999809 -17.1711617  12.9793835  42.9821434
 -17.5785637  12.8534136  42.0621834 -16.9028740  13.8934174  42.8556099
   0.3235362 -20.5377426  -2.4460762   1.0505095 -21.1980743  -2.6097641
   0.7324600 -19.9550438  -1.8601989  12.1199980  44.4993324   9.1975832
  12.4042549  44.7760925  10.0705166  12.8224764  44.8118401   8.6151247
  -5.5544286  38.0961876  17.4177837  -5.8852015  38.2150993  16.4838543
  -5.6614213  37.1326447  17.4710293  17.3517895 -12.4661760  11.6049614
  16.5735569 -11.9293814  11.3304043  17.0117245 -13.3728008  11.5977964
 -13.9181137  10.7442245 -31.9222908 -14.6292639  11.0078869 -31.2739658
 -13.1481895  11.0142288 -31.3516293 -29.6329060 -31.9555073   6.7758908
 -30.0023804 -32.1531334   7.6795259 -30.4362125 -31.4197254   6.4725742
  -5.0252218   3.3087761 -38.3308449  -4.5255346   2.4616606 -38.4384155
  -4.4087062   3.8533061 -37.8087349  32.6842499  18.0812836  -1.8160377
  32.2126770  18.4895535  -2.5197403  32.8729095  18.8283596  -1.1925204
 -32.3497200  18.1160736  21.4539852 -31.4527607  18.3383179  21.7681580
 -32.6227379  17.4783859  22.2085304   4.5926085   2.4109592  22.4302788
   5.3049374   2.1805186  21.7866306   4.0806208   1.5918396  22.4102478
  12.0311155 -32.5925713 -34.6916313  12.6075487 -33.1092796 -35.3644600
  11.3599186 -32.2816620 -35.4067535  17.7882977   9.5555668 -21.3794327
  17.9090347   9.2444296 -20.4828072  17.8145714   8.6311245 -21.8110371
 -27.7285004 -19.7956295   5.5886564 -27.7724228 -18.9060936   5.9566422
 -28.1908092 -20.3713818   6.1777453  -5.4300952 -42.8204308  -6.1290765
  -5.6524749 -41.8703880  -6.0617805  -4.5152755 -42.8124962  -5.6993856
  -4.2184730 -12.7337036 -27.3791790  -4.4359336 -12.2450895 -26.5649986
  -4.8888268 -12.4154043 -27.9846764 -20.4764957  17.3226738 -16.9841232
 -21.3419075  17.4136410 -16.4993172 -20.0109386  18.1865883 -16.7517643
  43.8311958  24.0756474 -13.2635012  44.1918983  24.2030544 -12.3584919
  43.1968613  24.7894516 -13.3401279  30.7020149 -21.7622528   4.6828299
  31.0363445 -22.5035458   4.1963568  30.8895264 -20.9997139   4.0921125
  26.7414589 -34.3358803 -13.2870770  25.9825592 -34.7998466 -12.8155975
  27.4453316 -35.0046196 -13.1247969   0.4159819 -37.1804924  23.3127575
  -0.0491007 -37.6710129  23.9978123   0.5990348 -36.3093224  23.7992725
 -30.5141258 -30.4882183  -9.9327936 -30.0710850 -30.5981216  -9.0082159
 -31.3875732 -30.9113655  -9.6559658  12.5782051 -11.1124964 -47.0670166
  13.4038057 -11.3879299 -47.4605522  11.9618349 -11.3157415 -47.8205757
   5.9561815  14.9027834  11.2944813   6.8696499  15.2962217  11.2086697
   5.7550306  14.7703867  10.3500757   9.4361191  35.9385910   0.0639802
   8.5168028  36.1356621  -0.3801530   9.1371670  35.1271362   0.5246723
 -15.2538834  -9.3647718 -41.7504425 -14.4171515  -9.3809223 -41.2387276
 -15.0861483  -8.6593285 -42.3910789  15.1403093  -7.0799332  27.8528347
  15.6644897  -6.3595786  28.2372913  14.3826075  -7.0518336  28.5411549
  12.8192968  -5.1410685 -41.0645752  13.3607817  -5.4737883 -40.3288841
  13.4070206  -5.2516737 -41.8522148 -12.5294209 -30.2683163 -29.3573589
 -11.6594715 -30.2156601 -29.7462463 -13.0640326 -30.5804920 -30.1511135
  -4.2654977  41.1980705   0.0545397  -3.9379334  41.6060333   0.8823963
  -4.5382771  42.0539322  -0.3688844  -9.5581474  -3.8702345 -41.4998741
  -8.9888582  -4.3389411 -42.0696678  -9.7590294  -3.0478194 -41.9404831
   7.6825662 -34.5520592  -7.6051440   8.3891344 -33.8661423  -7.6610222
   6.9386315 -33.9442215  -7.6955032  10.1499920 -16.4610081  22.0329838
   9.3345299 -16.8258476  22.4579582  10.8004379 -17.1383247  22.3704739
  -7.1487470  -4.1243801   0.5497413  -6.1152849  -4.0634613   0.5182765
  -7.1611519  -4.8880272  -0.1008566  10.5177107 -38.4510117 -16.1540890
  10.0654383 -38.8568954 -16.9337788  10.2594318 -39.0802498 -15.4291744
 -18.9192410  11.5796766  -6.7304435 -19.4246159  10.8926630  -6.2207441
 -19.6357250  12.1099310  -7.1311851 -25.4668198  -1.6730752 -17.0692673
 -25.5109444  -2.2346935 -17.8641281 -26.0220661  -2.3723803 -16.4797211
 -28.5025902  15.6403723  12.3319559 -28.0443897  16.0540504  13.0673342
 -27.8336105  14.9518852  12.1103067   7.2674508  22.2816315  17.7356186
   6.6195765  22.7989445  18.2484856   7.2889614  21.4244461  18.1971569
  29.9928131 -19.7458344   2.2973771  29.5404644 -18.9158287   2.6007483
  29.1803665 -20.2543011   2.0708699  18.7595921   9.0504284  38.7037048
  19.6188450   9.5337210  38.8861008  19.1108418   8.3880119  38.1800308
  35.6656647  27.7940884 -16.4997635  36.5888672  27.7297535 -16.8658085
  35.3460846  28.5678349 -17.1091022  -3.3281164  41.6216354 -24.9068089
  -3.5489058  42.1385841 -25.6931553  -3.3624506  40.7326393 -25.2871780
  34.6239548  30.5212326   1.5440555  35.5090332  30.1494789   1.7866058
  34.6495705  31.3982601   1.8969481 -14.1762466  20.9951706  33.6436653
 -13.2147884  20.9292507  33.3920097 -14.3886929  21.9378281  33.4515762
  33.9475937 -11.9804354 -18.7100601  33.3343735 -12.4263659 -19.3692131
  33.4203339 -11.1825228 -18.4462738  32.1845474  18.3388119  25.7229805
  33.1065788  18.5894127  25.5545063  31.7363262  18.5398483  24.9010220
  34.7189751  16.4032211  10.4094791  34.2993393  16.4670525   9.5118589
  35.6353760  16.2279911  10.1546926  17.0663528  -7.0331063  40.2881279
  16.9085579  -7.2833061  39.3259125  16.9018517  -6.0800142  40.2256660
  38.4604759  14.3710947 -14.9743643  38.4502869  13.5654984 -14.3727169
  37.5494232  14.3572683 -15.2947350   7.7955470   3.2841260 -34.8400803
   7.6190372   2.8063591 -35.6891937   7.3033509   4.0872126 -35.0080376
  13.2939663  24.9989262  27.8893642  13.3405857  25.8024559  28.4708347
  13.8813915  24.3840523  28.4095764 -14.8201809  -3.8868263 -18.6118431
 -14.7443724  -4.8968740 -18.6915512 -14.9180145  -3.6881356 -19.5789871
  31.9352798 -10.0679111 -24.5909042  32.0096130  -9.2979240 -24.0037613
  31.8270493 -10.7882996 -24.0259666  19.1600571 -36.9702644  20.1715336
  19.5385971 -37.7166367  20.7747231  18.6316261 -36.5474739  20.8356686
  -4.4954038  18.8819962  34.1625671  -4.0239654  18.6706085  33.3549919
  -3.7926698  18.6315422  34.8533249  34.8439674  11.2422791   3.9396331
  35.2397385  11.8066597   4.6274395  34.7921944  10.3835144   4.4261484
  10.2492018  -3.1001368  -0.9264156  11.2344294  -3.1972110  -1.0718502
   9.9126549  -2.8874545  -1.8484197 -21.4349480 -40.2334709   5.5119653
 -22.0468884 -39.5052834   5.4790845 -20.6354599 -39.8168068   5.0832863
   7.2909112  39.9294167  17.2241993   7.4209847  39.9715729  16.2852535
   8.0627432  40.4441414  17.5783787  -7.6603880  42.6198349  13.7982512
  -8.3203173  42.1487312  14.3697023  -7.7173738  42.0623856  12.9721985
  25.3466225 -32.4066391  29.7954197  25.2801228 -32.2210426  30.7663460
  24.5373573 -32.9624863  29.7388897  -4.1577883  31.1748219 -24.1402187
  -4.2035370  32.1385841 -24.3970852  -3.2259576  30.9828205 -24.2964077
  41.5378571  16.5210476 -13.0506077  40.6929169  16.4730968 -12.4671717
  41.1956749  17.0844517 -13.7669945  28.0321903   7.7382259  -2.0838215
  27.2762203   7.9691887  -2.7618892  28.4247417   8.6089945  -2.1199090
 -10.3862438  -8.6065874 -41.9739532  -9.4863176  -8.9778366 -41.9439201
 -10.4177103  -8.4824266 -43.0027771   6.9351063  -4.6112509  -9.9194965
   6.2623906  -5.3684092  -9.9899035   7.6193347  -4.9553571 -10.5068312
  14.0770826  -4.7371116 -37.8411827  14.4493027  -3.8129034 -37.8081245
  14.7259226  -5.1385641 -37.2484856  -5.7539735  -5.9014215 -10.3921995
  -5.6245441  -5.0082211 -10.0197973  -5.4679008  -5.7276483 -11.3422184
  -7.8738079  23.6501217 -26.9124870  -6.9851284  23.2318096 -26.8552532
  -8.4105730  22.8867264 -26.6419716  -5.4101028  22.6231480 -33.4910583
  -5.3795142  22.7522774 -34.4445534  -5.3686900  21.6093655 -33.5270958
  28.0289898  10.8694859   0.9144491  28.3189659  10.9205341  -0.0416325
  28.6873245  10.3210297   1.2796019  -8.5305166  -7.0447273 -17.0312691
  -7.7658005  -7.1951628 -16.4451542  -8.5930471  -8.0336447 -17.2784710
  20.6553249 -14.9952927  35.0222435  20.4550209 -15.7574663  35.5794601
  21.0787201 -14.3511782  35.6941757   4.2538438   2.2891040  40.7757607
   3.8164530   1.7343839  41.4772301   4.1046972   1.6690801  40.0553017
  -4.1950994  -5.4106073  35.7784615  -4.5555024  -6.3219872  35.7011719
  -4.9588151  -4.9427505  35.4042587 -34.3745232  -8.2059631 -28.2157917
 -35.1428070  -7.9587498 -27.7346001 -34.5518417  -9.1548185 -28.4261742
  12.6185646 -24.5494537 -11.5862522  12.1876106 -23.8920135 -12.2236633
  12.8565435 -25.2484875 -12.2688208   0.2194006 -11.1651020  46.4086800
   0.8134305 -10.9499950  45.6132164   0.8870078 -11.0260820  47.0850258
  32.9413643  -2.3552427 -18.1399155  33.5746765  -1.8995990 -18.6580505
  33.3209152  -3.2967715 -18.1300945  -1.0918860  31.4539013  15.2170362
  -0.8092406  30.5400925  15.3883762  -1.9790322  31.3580208  15.6442881
  36.7064400   9.7508221 -15.2691031  36.6006432  10.5857248 -15.7065859
  35.7035866   9.5156193 -15.2206726  -3.4828248 -23.4188728 -31.8837261
  -2.9658327 -22.6278286 -31.7032681  -3.1513758 -23.6891880 -32.7423515
  38.5688515 -11.1807079  19.3854160  38.9053650 -10.2639570  19.1017914
  37.6253357 -10.8327122  19.6454201  15.8713970  10.5098295  26.7095509
  16.2566967  10.9013147  25.8163548  15.4889345  11.3111706  27.0579700
  -5.0338130  34.9386902   8.1847916  -4.7353258  34.3411789   8.8639154
  -4.3127246  34.9167557   7.5558853  40.1168404  20.5174465  11.2247705
  39.8328590  19.5644512  11.0951366  40.0235710  20.8584309  10.2971926
  -7.6149731 -38.7850227   3.7893760  -8.3112726 -39.2814369   3.3773015
  -7.2693243 -39.4502525   4.4204569  22.0486679  -4.2245040 -16.7734776
  21.9028549  -4.0600815 -17.7814674  22.7508907  -4.8517981 -16.8662891
 -37.2978668 -19.0715294   8.3553514 -36.5555763 -19.0357113   7.7389798
 -36.9262009 -19.4367790   9.1834269  24.2086926  40.4178886  -9.4239311
  23.8314266  40.4031258 -10.3223028  23.5761089  41.0328865  -8.9763041
 -28.4237919  28.6749592   8.5700684 -28.2841454  29.6416798   8.6317053
 -27.7947140  28.4021912   9.2965307 -23.7173939 -23.5530472 -16.9888477
 -23.6646194 -23.9749222 -16.0880680 -22.9078732 -23.9964924 -17.3661804
 -14.7616863  31.5980988 -22.4407787 -14.4469748  32.5544739 -22.3477573
 -15.1101961  31.5928936 -23.3436470  -9.8269758  13.0143385 -18.3824501
  -9.9559727  12.1518154 -18.0323124  -9.9533091  12.8696728 -19.3167953
  -3.3241906  19.0348377  31.7014732  -4.0635099  19.0144215  31.0329952
  -2.7402852  19.7340393  31.2622261  11.5398521   5.7612467  21.7525959
  12.2871971   5.3085084  21.3198357  11.3451786   5.0086865  22.4233856
 -11.3858557  23.1567879 -40.3518333 -11.5527754  23.2309017 -39.3790054
 -11.9289827  23.8286247 -40.7588272 -25.5428505  -6.3618355  -4.3737926
 -26.4964123  -6.3685937  -4.5140181 -25.3453293  -5.4209218  -4.6127906
   4.5235662  14.0920010   3.2373307   4.7623396  14.5387554   2.3746834
   3.9159098  13.3994484   2.9304488  -2.0947945 -46.6931992  14.2272139
  -2.6184843 -45.9944000  14.6901751  -1.9273819 -47.2757607  15.0185156
 -28.6332970  -1.3676543   2.2824712 -28.8371258  -1.9289957   3.0343606
 -29.2124405  -0.6061597   2.4804001  -1.0804139  -3.6425157 -40.7118416
  -0.3320740  -4.2249417 -40.9701538  -0.9121160  -2.8349075 -41.2352448
  12.2850943  40.4016228  22.6254692  12.2414103  39.4754982  22.5543156
  11.4186916  40.7285233  22.3163471  40.9228325  -4.7810621 -30.2983494
  40.3716354  -4.2225161 -29.6515408  40.2193451  -5.4216962 -30.5322304
  30.9638653   1.4563230 -35.3305855  30.2667007   2.0647662 -35.7427368
  31.7407932   1.7705543 -35.8194618 -43.2057991  20.8254471   5.4762030
 -43.7919884  21.2964973   4.8974204 -42.4595757  21.4483280   5.5851455
 -26.2690620   1.7498477  19.5521851 -26.1386986   1.2214165  20.4147091
 -25.5098228   1.4183577  19.0503139 -17.7361069 -23.3998814  -2.1969550
 -17.7474041 -24.1099415  -2.9275479 -18.6597385 -23.5819893  -1.8454788
  26.1444988  32.6779442 -13.5355597  25.8965702  32.5466690 -14.5251560
  26.2632732  31.6878891 -13.3632269  -4.3361263  15.9094572 -33.7581024
  -4.0490623  15.4183216 -33.0455170  -5.3025465  16.0262241 -33.5880585
  -4.9428148 -39.1621552  21.3636036  -4.2873783 -39.1216660  20.6114101
  -5.3696318 -38.2644348  21.2010918   6.6279678  28.5424480  11.3518553
   7.1931248  28.2744370  10.5843029   6.6257739  27.7066746  11.8459949
 -14.6277494   4.3622050 -28.8210850 -14.3637209   4.0125113 -28.0146446
 -13.8527603   4.1741476 -29.4051361  -3.2323506 -30.4018726 -24.4876728
  -3.8746777 -29.7523861 -24.7068157  -3.8266196 -31.1054764 -24.0967159
  25.5331268 -23.0002403 -26.2815685  26.4125309 -23.3296280 -26.2753639
  25.7231522 -22.0490646 -26.6601295 -13.9727879  39.5542831   9.1924114
 -14.8186293  40.0417747   9.0066023 -13.5036478  40.2904282   9.6983566
  14.1960850  13.5250683  -8.5343876  13.4129772  13.4507875  -9.1346426
  13.7911491  12.9835701  -7.7781944 -30.8518925  -0.2673305 -12.8933973
 -31.1697979  -1.2067004 -12.8515596 -30.2823048  -0.3630792 -13.6934566
 -28.0224476 -35.7265549  -5.8858061 -28.3959579 -36.4704933  -5.3779888
 -28.6624928 -35.0189018  -5.6951895  14.7004061   4.6951456  24.5691719
  14.9690294   5.6140251  24.3648224  14.3458204   4.3360243  23.7240887
  12.5717430 -27.0290604  -9.7675314  12.5099220 -28.0049667  -9.7549171
  13.4002361 -26.9404812 -10.2692614  23.8260117 -37.0149269 -17.6836147
  23.5976124 -36.2810211 -17.0580311  22.9764481 -37.2734184 -18.0457096
   3.4972012 -11.8785095  21.9012070   3.1661217 -12.5689077  22.4805317
   4.2924662 -12.3215208  21.5920887  -6.6767888  -0.1043160  23.5830116
  -6.8313808   0.6902661  22.9810047  -7.5518913  -0.0934118  24.0347404
  42.4574852  -8.1325722 -26.6256561  42.2354660  -7.2821536 -27.0834808
  42.9125175  -7.6675687 -25.7644615  16.3487473  12.1167059   9.0010786
  15.9945621  11.6714087   8.2163296  16.2776470  13.0819912   8.8112469
   3.7649915 -42.3633804 -23.6069412   2.9887824 -42.4839973 -24.1864815
   4.2773271 -43.1217766 -23.7550068  27.0320644  -4.7380600 -27.1474247
  26.8187027  -4.1409817 -27.8799610  27.7247543  -5.3001037 -27.5306873
 -20.3102436   0.7444410  18.6767311 -19.6878109   0.1426452  18.2930050
 -20.1900368   1.5219312  18.1539936   7.1101990 -28.2379341  22.0888500
   6.7209611 -27.9804764  22.8932171   8.0391932 -27.9355717  22.1740761
 -15.1983109  37.4717064  25.1954117 -16.0136623  37.3366318  24.5798779
 -14.7613564  36.6534462  24.9250984 -13.0678596  39.6374779   2.1573508
 -12.2916069  39.7373734   2.7453463 -12.7215843  39.2290001   1.4087360
  24.8146114 -12.5327435 -26.7948761  24.1898556 -13.2463684 -26.6423550
  25.6412544 -12.9266195 -26.4585686   7.2184854 -36.0085907  -0.3975507
   7.4566541 -35.1994896  -0.7989768   6.2003937 -35.8500633  -0.2617774
   2.4306364  20.6406078  37.8348503   2.0787511  21.5329361  37.6440163
   1.5981010  20.1317863  37.9410019  -7.6146293  32.8467293  17.3288155
  -8.2781830  33.1235619  17.9585114  -7.1153002  32.1599197  17.7491150
 -26.3193169  -5.5812182 -38.6109848 -26.7377453  -6.1790409 -37.9983330
 -25.4443817  -5.4239268 -38.1998024  -9.7279224 -40.2057533  13.8968048
  -9.6155548 -39.6573067  14.7214699  -9.2372961 -40.9605904  14.1822319
 -13.9785490   8.9061899 -14.7941179 -14.7782545   9.1614933 -15.2821226
 -14.3491297   8.8738098 -13.8866730  -4.0169792  21.9239883 -24.0746078
  -4.5601749  21.1882687 -23.7223015  -4.1520967  22.6081905 -23.3924847
   0.0658134  15.6254501 -18.3247318  -0.5083874  16.1058140 -18.9409161
  -0.5810636  15.5963278 -17.5767097 -39.7059364  31.6373005  -9.4898672
 -39.2609978  30.8021584  -9.2698460 -40.4920692  31.5727329  -8.9276686
 -12.1404438   2.5635035 -42.4796600 -11.3046598   2.8769920 -42.8176041
 -12.1806688   1.7479709 -42.9492149 -13.3654346  11.8797855  37.3152351
 -13.5532455  11.5593519  36.4170799 -14.2709427  12.1399527  37.5684700
  27.5993519 -11.9168749 -18.8372765  27.4475288 -12.1783924 -17.9102249
  26.8579617 -11.3272142 -18.9854164   1.6712458  33.8186340   4.2461143
   1.7144771  34.2286186   5.1609836   1.4906921  32.9206123   4.5395155
 -26.3323936 -22.7289906 -10.4442472 -27.2374668 -22.2894974 -10.6390171
 -26.7533665 -23.6452217 -10.4930506  14.2564764 -27.4472179  27.4527817
  14.3817778 -26.8812809  26.6594944  13.7263613 -28.2098866  27.0777721
 -32.5328407  26.2552967 -14.5691471 -31.9123707  25.4754124 -14.7058048
 -31.9820099  26.9743462 -14.3034353 -15.9317188  17.5334167   8.8551588
 -15.7343922  16.5584297   8.7669582 -15.7900906  17.6547432   9.8279867
  30.7781105  20.1543236 -17.5845356  29.9207401  19.6929188 -17.4995346
  30.8486710  20.5115776 -16.6409206 -41.1485672 -15.3739710  11.2344885
 -41.2453117 -16.2999973  10.9638386 -41.7309113 -15.4058895  12.0190363
  -3.4019828 -12.4483576  17.1897640  -3.3540652 -11.6037779  16.7049103
  -2.6362002 -12.3220949  17.8175278  32.1423874  34.2416267  -8.5649137
  31.5530319  34.3662186  -9.3785200  32.9983635  34.1770477  -9.0425997
  19.1110096 -26.2454147  40.1794090  18.5225563 -26.2682896  40.9411850
  18.6166687 -26.8232327  39.5858841  32.7215881  -0.0750607  31.6647034
  33.1366844  -0.8729334  32.1384850  33.2834396  -0.0766657  30.8528328
 -29.3706703  18.7525921  13.3208284 -29.1011143  18.7440205  12.3922424
 -30.0157681  19.4971447  13.2744160  34.4240799  -7.5126905  22.9043961
  34.2407494  -8.2806129  22.4006863  35.1947403  -7.7224007  23.4377518
 -16.6695671 -19.6052456  11.6472359 -15.9456406 -20.2311649  11.4308243
 -17.4542408 -20.2185040  11.4166784   5.8645225  13.4198103 -29.1987934
   5.9230671  13.1947584 -30.1561584   5.7241402  14.3838892 -29.2434196
  21.6105919 -26.2915821 -17.5343742  22.0791950 -25.9133320 -18.3180103
  21.1379318 -27.0669785 -17.9235706  17.8677731  25.9631729 -15.9209175
  17.6791420  25.6521988 -15.0344286  17.6287155  25.1703167 -16.4939938
  43.3760757 -27.3528843 -18.9110985  44.3773994 -27.4991341 -18.7802467
  43.3777733 -26.4745178 -19.2886829  -1.8499415 -37.2907486 -29.1783333
  -1.6421320 -37.0555382 -28.2351723  -2.7993953 -36.9571037 -29.1895084
  38.3872070  -4.1793156 -23.5022736  38.8373146  -4.2030816 -24.3677120
  38.5856094  -3.1923697 -23.2128849 -28.8642464  21.3833027  30.1979504
 -29.7943192  21.1226978  30.1914291 -28.6150284  20.7051830  30.8900776
  -0.7338519  26.6288757 -30.0765724  -0.4597165  25.7404518 -30.4228554
  -1.5119205  26.3882122 -29.4774342 -33.8982773 -10.0286655 -14.1932135
 -33.6109390  -9.7673120 -13.3033123 -33.1826134 -10.6787977 -14.4251585
 -35.7031517  21.0369968  18.5721779 -34.9810944  21.6603966  18.8755951
 -35.3706779  20.2369175  19.0588188 -18.2480373  26.1189823  -9.1238365
 -19.2318993  25.8983803  -9.3022881 -18.2702808  25.8608170  -8.2049885
 -27.0266705   9.8299589  37.5716400 -27.7025642   9.4837542  36.9294548
 -26.4012699   9.1164799  37.4844055  19.6247730 -11.3930788 -32.6337624
  20.4375305 -11.0302505 -32.2516861  19.2349720 -10.6161413 -33.0550117
   4.8863730  42.6051102 -24.6013088   4.4592996  43.4269485 -24.9677696
   5.7171116  43.0433578 -24.3290291 -10.7695436  22.5995922  13.9241400
  -9.8157301  22.4406700  13.9715242 -10.9998055  22.2948265  14.8700180
  20.4182587 -32.0379944 -23.6069660  19.8135796 -31.6991673 -24.2965717
  20.4422188 -31.1880722 -23.0211620   0.1997791  11.2095013  30.6146030
  -0.4137958  11.2416162  31.3566399  -0.3222732  10.8653488  29.8667526
   8.7232409   1.4485954 -47.3828583   8.4175501   1.2294757 -46.4830093
   9.6883097   1.5899420 -47.1525230  12.9845791  50.2036705 -14.0868893
  12.1386280  49.8418007 -14.5181370  12.5819817  50.6581383 -13.3249121
 -21.2932796   6.9072151  29.8487606 -20.8683891   7.2889919  29.0789280
 -20.5299034   6.8412700  30.4714947   3.6067934  -1.2000688   7.2428603
   3.6568565  -2.0096734   6.7294507   4.4744887  -0.7625540   7.0855536
  26.1118584  13.0262690 -11.7286615  27.1275787  12.8304167 -11.7248564
  25.8269234  12.1788406 -12.0943327 -38.1655579   2.4358842 -33.7385445
 -37.4472847   2.2986035 -34.3174019 -38.8421593   2.7397761 -34.4166641
   5.8636560 -40.5061188 -10.0416574   5.7550936 -39.6498680  -9.6314869
   6.5496063 -40.3660011 -10.6810875 -23.0026760  37.6759834  -4.3423748
 -22.5577335  38.3246384  -4.9450293 -23.4030628  37.1106758  -5.0627241
  -4.8065119   3.7978718  37.9094543  -4.8917885   4.6968632  37.4730415
  -4.0649238   3.9928126  38.5473366 -30.7649784   7.4137816  -9.7068157
 -30.2549744   7.6388564  -8.8957214 -30.7046509   6.3989186  -9.5448208
 -23.7602310 -25.9316406   9.1208668 -23.6576138 -24.9769497   9.0309782
 -22.8375301 -26.1996994   9.2375355 -39.5327950 -31.0689049 -11.8712330
 -40.1773491 -31.0617943 -12.5500059 -39.0415344 -31.8809776 -12.0126972
  17.9496117   6.9821033 -22.9100895  18.2320461   6.0506921 -22.7080822
  17.0340290   6.7995481 -23.2601337  -5.8146157 -27.3924046  -8.5141373
  -6.1643925 -28.3041172  -8.4155216  -6.6831660 -26.9224968  -8.2822351
  36.7895355 -24.0003967 -14.0527630  35.9970093 -24.4801464 -14.3754482
  36.6410255 -24.0787125 -13.0909996   9.0382557   3.5057976  -9.3938398
   8.3090744   2.9080522  -9.7476473   9.8586540   2.9321933  -9.4003201
   3.5430400  17.0823708 -14.2325497   3.7838817  17.3543453 -13.3417730
   2.7520370  16.5162621 -14.0471697 -26.7184734  37.0237503 -19.3705444
 -26.3451576  36.7054520 -18.5332890 -25.8946514  37.2625618 -19.8306084
   7.3143444   9.5649223  33.4375572   6.3257852   9.5815983  33.1083908
   7.2132316   8.6267347  33.8820343   4.3392549 -23.9371529  14.6473122
   5.2779026 -23.7886429  14.5645523   4.1174436 -23.4300766  15.4433756
  -4.8809185  21.8323345  -7.5626941  -4.0734701  21.8182220  -6.9981976
  -5.4729867  21.3209572  -7.0614305 -36.9160080  24.1111622   0.3110459
 -37.3695259  23.2259808   0.5801610 -37.4372101  24.7047596   0.9030771
  38.4186020 -28.9555340  -6.1775279  38.8833313 -28.1943283  -6.5850859
  38.8294411 -29.0218678  -5.2680855 -31.2399063  13.4936485 -36.6535950
 -30.5264473  13.4490719 -35.9750862 -31.2715149  14.4726295 -36.8110275
 -24.5727596   0.7791903  44.0964203 -24.5716019   1.6673645  44.5294685
 -23.6005630   0.7769023  43.8767815 -23.6868095  -8.3956051  -9.6918211
 -22.8242970  -7.9738879  -9.7075214 -24.1937428  -7.8648887  -9.0144100
  -0.3000849  10.3666620 -37.5135689   0.0280659  10.1076059 -36.6189499
  -0.6463566  11.2202005 -37.3961906  27.4977474 -35.7112236   0.5472697
  27.6477795 -35.4185638   1.4847475  27.2409821 -36.6458282   0.7983629
  25.0634480  38.3246460 -11.6983662  25.2436428  37.6521568 -12.4004374
  24.6848660  39.0490913 -12.2723312  -5.5868464 -41.8327980   2.5249355
  -5.5929675 -40.8676910   2.3317101  -4.6382794 -41.9252357   2.7814300
  14.4327469 -30.3456440  32.2899513  15.3392849 -30.4243393  31.8320312
  14.6821518 -30.8862610  33.0922241  -1.9699447  20.2314358  -0.5242224
  -1.2554984  20.2847595   0.1931013  -1.8091011  21.1442909  -0.8658248
 -26.3624039  -3.3017621 -40.6654320 -26.4204445  -3.9385977 -39.8969498
 -26.2408638  -3.9193003 -41.4100914  13.2594290  -3.7445431  16.8957691
  13.8198347  -4.5202727  16.6128311  12.4976187  -3.9709744  16.3172398
   6.7940440  34.5220337 -16.2152386   7.6950154  34.1090622 -16.1981411
   6.5069914  34.4164581 -15.2867613 -17.8306389  -3.4708073   6.8516488
 -18.5819740  -3.9670157   6.5135665 -17.3305912  -4.1045265   7.3524528
  39.8524818  -8.6304188  19.2250347  39.7204895  -7.6772618  19.5688705
  40.8660698  -8.5729790  19.1851749 -25.2186413  16.1151714 -25.2933540
 -24.7229462  16.7241440 -24.7509956 -24.6476040  15.2987709 -25.3060513
  26.8999557  -8.5477438 -37.5299454  27.0069256  -9.4709435 -37.8543472
  27.0861721  -8.6750927 -36.5686989 -19.8954697   8.1395731  27.6117554
 -19.5272121   9.0335674  27.8321495 -19.2236919   7.8641458  26.9198208
  14.2123308   1.7828490  15.3636827  13.9950171   0.8380688  15.5277910
  15.1405048   1.7265214  15.7506819 -31.3621864  11.0836287  38.0162086
 -31.7772408  10.1716404  37.9765892 -31.9233456  11.5264626  37.4262238
  40.3615150  23.3525124  -6.9366717  40.5151520  23.2888985  -5.9153805
  40.5385284  24.2930698  -6.9911914   6.4150872  40.9700584   7.7854562
   6.8078218  40.6309509   8.6175671   6.9955401  40.5320320   7.0782342
  22.7466335  19.0421772  32.6236572  21.9318218  19.5688324  32.5942574
  22.7477722  18.8500004  33.5910988  40.8210640  26.5945301 -19.6384583
  41.4325676  27.2911854 -19.5140953  40.5598602  26.7424965 -20.5786781
  38.4726295 -11.3303518  -2.2597568  38.9421883 -12.1208172  -1.8662108
  37.9848213 -11.8404055  -3.0095747 -13.2804184 -17.7705460 -15.2580891
 -14.0900536 -17.5203724 -15.7845516 -13.7535143 -17.7552032 -14.3833580
  -5.7970405  16.7755947  16.8348808  -4.9653668  16.6435623  16.3684959
  -5.6268735  17.6969872  17.1482792   0.7033118  11.8664503 -29.6320210
   1.1965981  12.6618996 -29.7841568   1.3552001  11.1849384 -29.6940136
  -7.5276117   8.2112684 -45.7112236  -6.9367423   7.5088243 -45.3499718
  -8.3508816   7.7892594 -45.8366890 -13.5693188 -10.5579443 -36.2403564
 -14.3301125 -10.0276575 -35.8330803 -12.8169413 -10.1189213 -35.7139053
  -9.2139034  22.7583599 -42.7428246  -8.3671885  22.5605927 -43.0784264
  -9.0701790  22.7877808 -41.7836380 -11.8230581  -8.4225874  10.8709307
 -11.0423021  -8.2797661  11.4005919 -12.3564186  -8.9973345  11.4248037
 -20.9377041  15.2534676 -36.0669823 -20.5906239  15.1797161 -35.1547318
 -20.8992634  14.2871685 -36.2802734  11.0450716  17.8342152  14.6717291
  11.8340816  17.3342781  14.9930048  11.1832237  18.5380859  15.4527731
  39.2378922   6.3044109  -9.9035158  38.3946953   6.8442731  -9.9213524
  39.0686455   5.8255887 -10.7489042  12.5933113 -31.2341003  39.9290390
  12.7957392 -31.9421844  40.5912933  13.4438143 -31.2231865  39.4198685
  14.6344557 -27.6638565 -24.2783184  14.5164137 -27.4031239 -25.1884212
  13.7496758 -27.6785908 -23.9228992  36.9314919  19.7674942   1.1158016
  37.2028236  18.8507290   1.0833488  36.0005684  19.7668076   1.1258380
  21.0785389  17.0365772 -32.9374466  21.5011559  17.9417496 -33.1531143
  20.3383656  17.0970631 -33.6382446  37.6992416  11.9934702 -28.8069916
  38.3869133  11.5673294 -28.2130184  37.3079033  11.1456947 -29.1994381
   2.1049569  33.6515808 -26.7881851   2.5599127  33.2663956 -27.6074429
   1.4294381  32.9713745 -26.6947765  34.3152847 -33.6933060 -13.1210794
  34.6750107 -32.8883629 -13.5000563  34.1420326 -33.4636383 -12.1918774
  10.0189753  21.6090851 -22.7238522  10.4971189  20.7912693 -22.9391346
  10.0096569  21.5245762 -21.7448292  -9.3003073   1.6411443 -23.6642036
  -8.3332901   1.7313666 -23.4552174  -9.1830454   1.3776816 -24.6412945
  30.7797832  10.3678274  23.6744003  30.7554283  11.2314606  23.1706295
  30.9630470  10.6640854  24.5645771 -29.3318024   3.2372673  24.1126060
 -29.2369137   4.1483841  24.4186687 -28.7730789   2.7966666  24.7628994
  34.3039703  20.7914505   8.5762634  34.1360817  20.6546192   7.6296277
  33.6245232  20.2315292   8.9623184 -17.7200165 -17.3607388   5.2970219
 -18.6690331 -17.1501122   5.3579497 -17.3368778 -16.7838726   5.9582410
 -38.8372154   1.2020723  36.8929367 -38.9780540   2.1812119  37.0127144
 -38.1266975   1.1679884  36.1889076  11.8457394  -1.9606158  27.4551296
  12.4006023  -2.7517843  27.4402695  10.9865313  -2.4044120  27.3157940
 -36.4908371   8.6313028  18.7855339 -36.6183319   8.2729797  17.8403378
 -37.2773170   8.3220587  19.2086029  37.2225227  11.5456696 -20.9421158
  37.2957649  10.8469276 -21.6395226  36.2890701  11.8032742 -20.9860420
  -1.4269978 -19.0729122  32.0103645  -1.5819941 -19.0393543  32.9740639
  -1.9040689 -19.8302002  31.7214565  22.8611526 -21.9278202 -31.1667824
  23.2784481 -21.7723732 -32.0577354  22.1308632 -21.3148098 -31.2627811
 -25.6111832 -18.4632130 -28.1720161 -26.4085884 -17.9849319 -28.5177917
 -24.9171257 -17.9928226 -28.6578732   4.1867962  19.5938301  29.0861282
   4.8711562  19.5372391  29.8001747   4.7414794  19.9827042  28.4076233
 -23.2415676  -2.1710584  25.8613415 -22.4869556  -1.7062968  26.3108616
 -22.9332466  -2.1309614  24.9228268  17.1979923 -16.3758011   1.9065425
  17.7479572 -16.1232491   1.1327519  17.9285145 -16.6338253   2.5478272
 -19.3621426 -12.4325714 -37.2616310 -18.7731762 -12.0461588 -36.6104202
 -20.0002213 -12.9272785 -36.5944328   7.4466009   8.5725279 -15.4061842
   7.4526014   7.8224716 -14.8381910   8.4062052   8.7444963 -15.5033894
  42.3467979  18.6019592  -1.6235882  41.9074898  19.4927177  -1.9927642
  41.6536102  17.9624310  -1.8541862  17.9515762 -14.0065765  18.4255104
  17.7011318 -13.2594986  17.8443413  17.1002216 -14.0385685  18.9737625
 -18.4367867 -45.0929108   1.0002632 -19.3914108 -45.1951942   1.0817242
 -18.3161774 -44.1304169   0.9501475  16.3398380  -6.3254633 -50.7777824
  16.4771252  -5.7980332 -49.9399033  16.0420437  -7.1565986 -50.3653641
  16.7078533 -29.3899899   9.2778339  15.8823690 -29.3208027   9.7965832
  17.2964745 -28.7901917   9.8526850  11.8166056  38.5817299   9.9479618
  11.0663977  38.2060738   9.3798018  11.6269150  38.1294518  10.7900381
  -2.5699914  19.7941170 -43.3982201  -2.4864113  19.2050190 -42.5992775
  -3.4726353  19.6407337 -43.6520576   2.2790198  -7.0585499  23.3252258
   2.5492930  -7.5142951  22.5263309   1.3632934  -7.4555140  23.3904629
  -7.3595853 -11.5650272 -11.3087597  -8.0275011 -11.1973391 -11.8135014
  -6.6981659 -11.8817530 -11.9939575  -2.3448784  21.0096245  16.5712852
  -2.6932995  20.2788448  15.9851074  -2.3564653  21.7431126  16.0102386
  20.6384106 -32.9486313  -2.5229568  20.6590290 -32.5957298  -3.4040043
  20.7387810 -33.9194984  -2.7738397   3.1146467 -41.5353622 -29.9262333
   2.8825951 -42.3895912 -30.3344765   3.3780518 -41.0314903 -30.6865673
   1.8693495  26.4840393   3.1040969   2.0420873  25.5713310   2.8072190
   1.5920103  26.3838825   3.9917037 -35.5405655   5.8939104  12.1024771
 -36.5171623   5.9361300  12.1619444 -35.4167976   4.9492970  12.1695261
  -1.2546226 -23.4551144  36.1980476  -0.8919161 -24.0829983  36.8286819
  -1.6533308 -24.1291447  35.5441055  -2.1505435  31.3803501 -32.6083641
  -1.6778069  30.7220440 -32.1057281  -2.7468798  31.7815189 -31.8925591
  -2.7875311  15.6289988  37.3385696  -2.1303060  16.1100101  36.7783241
  -3.4539530  15.5178547  36.6890831   6.3277850 -24.4873409  22.3685036
   5.6903772 -25.1790314  22.7037849   6.2633257 -23.8184776  23.0811138
   8.3430490 -23.4207134 -31.3278942   7.3842988 -23.3570442 -31.1599216
   8.3091555 -24.0198898 -32.0810242 -28.3055401  26.5705471  25.8277874
 -28.3265705  27.4285297  25.3623180 -28.4454117  26.8420029  26.7763824
  28.4559212  29.8601284  -6.8312654  28.5125484  28.9010677  -6.5827928
  27.6300659  30.0725060  -6.3753190  16.6105061 -14.5518188  37.1448288
  16.3110352 -13.7865772  36.6502762  16.6126080 -15.1845312  36.3355255
  18.5844173 -22.6097679 -28.1000576  18.1541805 -21.8135128 -28.4166603
  19.4724827 -22.5059395 -28.5101814   5.4155922 -23.9891281 -30.9979630
   5.1375875 -23.3444386 -30.3231220   4.7483473 -23.9366817 -31.6765995
  -3.6301847 -22.2734776  15.8642969  -3.1908424 -22.7452946  16.6298084
  -4.5801053 -22.3654327  16.1749496  -5.0644398 -37.0373726  14.4797735
  -4.6302967 -36.9306908  15.3591509  -4.6953416 -36.2363091  14.0137405
  -9.1529694   2.4073534 -40.7468452  -9.5570993   1.5423400 -40.6026192
  -9.9131775   3.0227313 -40.5485649 -31.9502430 -34.7255135  17.9467182
 -32.3708916 -34.5037880  18.8127995 -31.0230408 -34.9555054  18.1590347
 -36.4596481 -10.6760302  22.6837883 -36.0549583 -11.2623558  23.4059372
 -35.9387779 -10.9121504  21.9263992  43.5017242 -18.0489407   8.3285465
  43.3172264 -17.0865536   8.2538366  42.5903740 -18.3514385   8.0604410
  36.3608932 -21.9164772  15.1219492  37.1121216 -21.8305988  15.6918745
  35.9821510 -22.7439423  15.2992582  -0.8925269 -10.6644735  28.8943481
  -1.4372215 -10.4354038  28.1041946  -0.0192464 -10.2497673  28.5794430
 -19.3308735  -9.5622826   3.6579671 -18.9096966  -9.3950033   4.5235343
 -20.1559906  -8.9577236   3.7378190  26.7422333 -14.1132193  16.7526741
  26.7144012 -13.4085712  17.4497986  26.1250095 -14.7279224  17.2162781
 -15.0955029  12.5908432 -47.7003708 -15.4215946  12.0054331 -48.4144287
 -14.9993782  13.4306498 -48.1556206 -29.7205315  12.8651524  21.6022186
 -29.8215141  13.4584656  20.8410206 -30.3874893  13.1348629  22.1798611
 -22.9175434  17.6391411   0.0459895 -23.4636879  16.8360634   0.0189316
 -22.7343616  17.7584400   1.0217865   2.5155079 -38.2113342 -26.6133442
   2.2884285 -38.8001366 -25.8674355   2.2645571 -38.8108025 -27.3404369
  10.1673479 -29.5021706 -30.2796936  10.6284046 -29.9259624 -31.0838070
  10.5760565 -30.0345268 -29.5922432 -15.2537222 -29.1053295 -10.1919041
 -14.6881084 -29.8660069  -9.9732656 -15.6344204 -29.3357124 -11.0496511
  -3.7956786  -1.7187177  13.1197824  -3.3545699  -2.1530590  13.9336872
  -3.4704330  -2.3996015  12.4695768  22.6876907  41.8476486  -4.9264884
  23.7195473  41.8563805  -4.8579621  22.5861530  40.8673019  -5.0273771
  29.0299129  21.6278591  24.5263634  28.1773415  21.8579178  24.8752518
  29.6143036  21.9282188  25.3099174  44.0656853  20.1819859 -10.2439680
  43.1492462  19.9644203 -10.5228500  43.9687500  19.9703159  -9.2707882
 -13.7687969 -36.3533592   1.4924730 -13.7013235 -35.5295258   2.0446541
 -12.8646193 -36.7498245   1.7919056  20.5040035 -28.0990238  29.0077457
  20.8637409 -29.0081654  28.7729931  21.3293743 -27.5548553  28.8184738
 -37.1672325  17.7038898 -10.0587082 -36.9807930  16.8306694 -10.4913893
 -38.1045647  17.8952980 -10.3974638 -20.1279793 -30.8439980  26.1198254
 -21.1057568 -30.5629749  26.2934608 -20.2484646 -31.2371063  25.2233276
 -37.4097977 -16.4697781  14.4640970 -37.2930107 -15.5769806  14.0795460
 -37.9561081 -16.9564743  13.8621597   9.7065916 -29.2460632   7.5054617
  10.4791384 -28.5935879   7.5622873   9.8207989 -29.4518166   6.5386329
  -0.1558657   2.3138609 -13.1653204  -1.1192278   2.5840759 -13.3054991
  -0.2231109   2.0138748 -12.2157478 -17.7961769   0.1701551 -33.5557594
 -17.5645390  -0.5881835 -34.1500816 -17.4211273  -0.2073152 -32.7398567
  -4.3960333   9.7547483  38.3660965  -5.3950968   9.6115980  38.5705338
  -4.2673116  10.6069374  38.8673782  12.1990194  10.7721605 -20.8922672
  12.1369181  10.5018902 -21.8562908  12.4608583  11.6759043 -20.9737301
   0.8482345   8.5719242  43.1420441   1.6682053   9.1033659  43.1197395
   0.9167508   8.0688248  42.2919693 -19.6553230 -12.4389925  32.0866013
 -19.8827438 -13.2226839  31.6468964 -20.4007416 -12.2220440  32.6638412
 -25.8748684   7.2102561 -39.9104729 -25.5896053   8.1683331 -39.8758926
 -26.6186142   7.2040520 -40.5501785 -43.6216965  -1.9289646 -31.9509068
 -44.2364883  -2.6730630 -31.9215603 -42.8647957  -2.3398921 -32.4319382
 -20.5565529  29.7690392  22.1145077 -20.4800358  29.1012058  21.3508263
 -21.1565742  30.3858147  21.5982590   5.7227039 -14.3206291 -17.7412682
   5.8099117 -13.6121168 -16.9944744   6.3762636 -14.9958801 -17.3114300
 -21.7379208  38.2963715 -27.9652920 -22.1660404  38.7402649 -28.7535725
 -22.4510307  37.6882439 -27.7030735 -42.9107399  -5.3441644  21.5883331
 -42.3191795  -5.6396298  22.3581448 -42.4200058  -4.4649181  21.4899178
 -28.1299133  23.0293598   8.9300613 -29.0026989  22.6155701   8.8344040
 -27.5939312  22.2650127   9.3633032  38.2313309  10.7869101 -18.5005646
  37.5655403  11.0792341 -17.8215103  37.8321800  11.1450682 -19.3024330
 -20.2992268  18.1442318  -0.5935375 -19.9760094  17.2952633  -0.8395019
 -21.2529526  17.9519081  -0.4238193 -22.8858414  21.5186443  13.7890177
 -23.2839985  21.8250923  12.9447823 -22.0595951  21.0763607  13.4117832
 -16.7817841  33.6418076  17.1937943 -17.0429821  33.9897270  18.1166248
 -17.3839645  34.1780663  16.6403980  28.5871506   2.8912456   6.0994358
  27.8050423   2.4207971   6.4336181  28.7620544   3.6086359   6.6985278
 -41.9183464 -19.5552216   9.0869169 -42.7772827 -20.0125294   9.2241154
 -42.1380997 -18.8846455   8.4038105  10.1592760   7.1522083   6.6844158
   9.5766897   7.8797770   6.9635205   9.8308125   6.4044595   7.1100640
   0.4289354   3.1460707 -35.5055351  -0.3826792   3.1427915 -36.0881729
   0.6274729   2.1613472 -35.5544930 -11.9831610  42.9310532 -32.3405228
 -11.1926298  42.7611313 -31.7616539 -11.6158199  42.4757423 -33.1328888
 -12.0618725   3.9598575 -14.0784941 -12.4768457   3.5842662 -13.2503777
 -12.2317438   4.9140601 -13.9608221  29.2567787  37.9159966  19.3571644
  30.0663986  37.9856834  19.8420734  29.6518669  37.7330093  18.4327202
  32.5733414 -12.7592878 -33.4445686  33.2327042 -13.3995533 -33.7538834
  33.1060219 -11.9187479 -33.6884270 -31.4986153  10.6306629  24.5605087
 -32.1088600  10.0594282  25.0689049 -31.0292130   9.9169960  24.0833893
   5.6803665  -5.8819652 -12.9303455   5.2256708  -5.1156754 -13.3857508
   5.6523652  -6.6101260 -13.6211576  17.0191269   1.0637616 -12.5311317
  16.1671600   0.6470242 -12.4286194  17.1298561   1.1277611 -13.4993811
 -27.0710716  15.6117401 -35.2746582 -27.3918915  15.3832817 -36.1757126
 -26.9505348  16.6142902 -35.4320908  22.7150440  -4.9535017 -24.3186092
  22.4166622  -5.1997714 -25.2341194  23.6917515  -5.1317425 -24.3987465
 -15.4579906  -7.4647479  30.7659836 -15.3173084  -8.4213514  30.7672195
 -14.7753401  -7.1523533  31.3868656  27.0077763   1.8951929  28.3223286
  26.3779602   1.1567652  28.1546021  27.4821644   1.4936098  29.0917015
 -14.9558821 -47.3351746   5.2300191 -14.6749601 -46.4988670   4.7590389
 -14.1135321 -47.8478432   5.1406031  15.3685465  19.2452374 -25.5109711
  16.1252842  19.2473869 -24.9459038  15.1943388  18.2834625 -25.6625767
  35.7585754   6.3029518  32.0594482  35.2242661   6.4123244  32.8931122
  35.3435287   7.0568538  31.5689144 -16.7913189 -25.2423534 -26.9109764
 -15.9587650 -25.7444439 -26.8941135 -16.9182320 -25.1859589 -27.8729038
 -27.2097778  30.4185905   1.2659734 -27.3417797  30.5826817   0.3186996
 -27.9107609  30.9764042   1.6191498  -2.9195974 -29.3487778  31.4528313
  -3.1218650 -30.3240452  31.6561375  -1.9520417 -29.4576988  31.6076698
   4.7424994 -19.2906933 -32.8127251   3.8244095 -19.6708889 -32.8900108
   4.6073532 -18.6032410 -32.1643181  11.1288586  37.7346840  15.5885897
  11.1390181  37.8751030  16.5711212  11.0402431  38.6800232  15.3044472
   6.5764527   6.2824793  15.1492138   6.1837907   7.0516982  14.7593584
   7.4784646   6.1822701  14.7144871  -4.4426136  45.2113876  -9.9936934
  -3.8187246  44.5142555  -9.6995020  -4.8868480  45.3576012  -9.1402073
 -21.9343433  38.0846024  -0.9031152 -21.0709610  38.1890182  -1.3340900
 -21.6710320  38.1533127   0.0148977 -13.0100822 -30.2120876  -3.3844175
 -12.5172720 -29.4103699  -3.1909785 -13.8548174 -29.8976231  -3.8087573
  -6.5915246  28.6833858  -2.7640343  -6.7710614  27.9290733  -3.3387523
  -5.6426382  28.8171959  -2.8883183  10.3770924 -30.0785522  40.8858528
   9.9044571 -30.8875504  41.0822563  11.1770401 -30.4563808  40.4602356
  -3.9732673  12.1630745  21.0613613  -3.7635305  11.2245331  20.9286690
  -4.7153144  12.0749722  21.7150383  30.0752850  30.8667812   8.7425518
  30.1581764  30.0339146   8.1969547  29.5572433  31.3813229   8.1291065
 -13.5976562 -50.6716309 -14.7561789 -13.9362221 -51.1587029 -13.9223623
 -14.1349869 -51.1508026 -15.4208851  35.9046097   2.8918674  26.2129459
  36.8492203   3.0994773  26.3339291  35.8500366   2.7503464  25.2688484
  36.3731422  18.6334515 -13.6287098  36.6825180  19.4722843 -14.0828381
  36.9487648  17.9713478 -13.9943590  -8.3580799   3.3175516  11.8591528
  -8.7194157   4.0739865  11.3530102  -8.0514317   2.7881186  11.0908470
  21.6342430   1.0586023  40.0474396  22.5302372   1.3944335  39.8677444
  21.6096668   1.1259518  41.0440903 -14.0091066 -11.7652187 -32.0824051
 -14.3978310 -11.9877405 -32.9498062 -13.2016954 -12.2979975 -32.0503731
 -41.9004936   6.9830351   8.3262539 -41.3994637   7.4633393   7.6564364
 -42.7316246   7.5784173   8.3968887  33.9337578  -1.2747327  -2.2825587
  33.7603874  -1.3308094  -3.2472756  33.3531075  -1.9771543  -1.9098278
 -26.4966908 -43.7291946   0.0965435 -26.3084755 -44.6272621   0.4200889
 -25.8038006 -43.6397095  -0.6042918  34.6513138   7.6080503 -12.0630569
  34.2055588   7.1071010 -12.7609625  34.9392586   8.4145136 -12.5246611
  -1.0122977 -29.5031357 -31.6383400  -1.1185163 -30.4669914 -31.6430969
  -0.0892747 -29.4159584 -31.3907528  18.4288998 -16.9173946  -4.8415642
  17.9538727 -16.5579319  -4.0721536  19.1106834 -16.1683884  -4.9669995
 -32.3079109  10.1128168 -20.8157024 -32.3506393  10.0862226 -19.8380833
 -32.2600403  11.0885029 -20.9131699   8.2787342   1.6024115  32.3279419
   8.8655701   2.4018304  32.3438797   8.3678331   1.3930832  31.3617592
  22.1669636  -2.9852402 -10.2084188  22.1856174  -2.4875836  -9.3783216
  22.0730553  -2.2037625 -10.8183002  28.2983341 -20.0751514 -19.4917049
  27.4551735 -20.4948769 -19.6631088  28.9204330 -20.7840099 -19.3571510
  19.7240200  -7.9559102  -6.7797360  19.8654079  -7.0169663  -7.1374283
  19.5859070  -8.4183197  -7.6159902  35.9949150 -28.3335323 -24.1644211
  36.8181305 -28.4580975 -23.7111301  36.1045227 -27.4518757 -24.5459995
  24.3762627   9.4683256  19.2325439  25.1797028   9.3007421  18.7039261
  24.3181591  10.4415140  19.0401859  14.6068773  35.6797485 -22.7022057
  14.1100044  36.3932991 -23.1344090  13.9630833  34.9769516 -22.7065468
 -34.5330772  24.8603115  14.5852280 -34.9742699  24.4828987  13.7875919
 -33.7273788  25.2176228  14.1247473 -19.0381374   9.2405424 -21.7728176
 -19.4404259   9.4274979 -20.8839054 -18.5938568  10.0789938 -22.0084400
  -3.4524744  16.7444267  15.3624334  -2.8098748  16.8706818  14.6435223
  -2.8721435  16.7028103  16.1473827  40.3648872 -32.0481110  -9.3358765
  39.9264221 -32.0286484  -8.4419680  41.3076515 -32.1089401  -9.0821562
 -18.9431400  33.3134880   1.5882674 -18.0853748  33.6209526   1.9579079
 -18.9037876  32.3622475   1.8885581   6.4203634  17.2028427 -18.7355804
   7.2868299  17.5619278 -18.4440384   6.0777841  16.9360905 -17.8318882
  26.8816376  18.8772221  14.5632858  27.0750351  19.4512291  13.7920446
  25.9431057  18.7995071  14.5284691  34.7149010 -13.4762354  17.6098232
  35.6013222 -13.7144995  18.0078030  34.3823967 -14.3974543  17.4729290
 -37.6049500  -0.7529804 -37.1277809 -38.3304443  -0.2953144 -37.5510597
 -37.7398949  -0.5312347 -36.2045708  15.2727022  -9.7119436 -12.2075253
  14.6798000  -9.9818954 -11.4900637  15.2404461 -10.4877806 -12.8008232
  15.7280407  -0.1895692  44.9444847  15.9145832  -1.1433074  44.7664490
  15.0533743  -0.2003084  45.5764503   7.4464469  23.2880173 -28.9424648
   7.0458455  24.1532974 -29.0371113   8.2770805  23.4893532 -28.4939938
  13.2733955   8.6963835  13.8370543  12.5163250   8.1483307  13.4619799
  12.7412891   9.4617739  14.1834478  -0.3387043  18.6322803  33.9112892
  -0.3778859  18.2572613  33.0262642   0.5854489  19.0055466  33.8718224
  16.8287430 -33.4731178 -17.0634441  15.9444103 -33.2780838 -17.4240894
  16.8015976 -32.8974648 -16.2577724 -13.7718592 -10.0053434  12.7072868
 -14.5846157 -10.4129906  12.3538332 -13.5601835 -10.6891050  13.4379034
 -39.5538445 -20.7144852   7.8515201 -40.3020897 -20.2979908   8.3452892
 -38.8173256 -20.0780792   7.9927635  -6.9212923  37.5845757   3.6426342
  -7.3660102  37.5551643   2.8037145  -7.4113231  37.0275497   4.2509212
 -25.8973198  13.7561941  26.2723961 -25.7024860  13.8509512  27.2176609
 -24.9644547  13.9140081  25.9341927   3.2072570  17.2652798 -26.6187782
   3.7513540  17.3634033 -25.8223743   2.7738292  16.4361496 -26.3612823
  18.9237652   9.5377016  27.3018417  18.0611649  10.0814762  27.3336525
  19.3137989  10.0342655  26.4926090 -10.4821281  36.4001198  -0.6557142
 -10.6139936  35.6998100  -1.2062771 -11.2995510  36.9041100  -0.6172588
  -7.2526731  -3.4603720  14.3006401  -6.7183590  -4.0450091  14.8930120
  -7.9428420  -4.1365991  13.9905138  16.0604382  17.3443680   3.8621995
  15.9771671  17.3959198   4.8756676  16.6941757  16.6426296   3.7140472
  -1.0899017 -46.6855354  20.0599651  -0.4673345 -46.0836639  20.4901485
  -0.8425365 -47.5497437  20.4710274 -13.4112692 -29.1673241  25.5905590
 -13.2931147 -30.0597057  25.8750687 -12.5726452 -28.9711761  25.0825081
 -43.8041916  30.6395683  -9.9344540 -43.6937561  30.4235764 -10.8769121
 -43.6319885  31.6415291 -10.0676203  -9.0498848  19.2476425  45.0937538
  -8.3958483  19.7436790  45.6047478  -9.4029036  18.5769100  45.7468109
  35.4731674  -2.7998862  11.2853031  35.1180077  -3.4473464  10.6180859
  35.2209015  -1.9301493  10.8390398 -14.4147806  -2.1263354  44.6323280
 -14.6107235  -1.3029397  45.1711159 -14.0010633  -1.7272108  43.8546181
  18.5327415  35.1042900  23.1178684  18.6681557  36.0942383  23.1972466
  18.5296879  34.9531174  22.1792927  20.3386307  -3.0222428  -7.2576375
  20.1701088  -3.0508983  -6.3034620  21.0694466  -2.3257661  -7.2287712
 -19.4238510   8.2023382 -24.1290436 -19.4547234   8.5070553 -23.1697865
 -18.5570908   7.6559620 -23.9737568 -14.3060703  -1.9731013 -30.8174229
 -14.2996836  -1.8659126 -31.8300629 -13.3727684  -1.8954602 -30.6233673
  21.4822769   9.8161688 -13.0458031  20.6602726   9.4576693 -13.3511591
  21.3505268   9.9479580 -12.0969563   0.4765079 -12.1605301  36.4505043
   1.1789409 -12.5860586  37.0272713  -0.2402430 -12.7837477  36.4679832
 -14.7012815 -49.8248100  12.2138567 -14.7388868 -50.6059189  11.6738415
 -13.7612982 -49.7070351  12.3657742  27.7519703  -6.2482901   3.8115771
  27.0102291  -5.6199937   3.6414754  28.4862328  -5.7937226   3.3442166
  30.0502205  -8.0221539 -10.7298870  30.4734421  -8.5637836 -10.0145540
  29.5031509  -8.6357908 -11.1808424  30.0170460 -22.4693050 -22.6840096
  29.4425526 -23.1300755 -22.2606564  30.6986427 -22.4503136 -21.9545135
  14.4127760   7.8796897  41.5462036  13.6579113   7.6122146  40.9094124
  14.9699917   7.0251408  41.4147415  15.0318756 -35.0800934 -19.8089962
  15.0904036 -34.5964851 -18.9815083  14.1180630 -34.8738594 -20.1187592
  32.0395927   2.4401975  -1.4051937  31.9200630   1.6140276  -1.9572937
  32.0957947   2.0623658  -0.5055956  19.4345722  21.6577873 -15.1694241
  19.3131199  21.3940296 -16.1520233  20.3663654  21.3663216 -15.1156101
 -12.0010777  12.6263161   6.9513936 -13.0011024  12.7891264   6.8674045
 -11.7981720  13.0922937   7.7531810  17.7125015   7.2480330   6.5131831
  17.7519970   8.1475811   6.0611773  18.5387745   6.8840432   6.1681027
  37.9052887   0.1169346  -2.5237584  37.2866707  -0.5780749  -2.1538692
  37.9276161  -0.0425988  -3.4246869 -39.5633812  18.9055462  15.5886116
 -38.6339531  19.1665020  15.7181768 -39.6804199  19.4364128  14.7630653
  27.9923325 -20.9987850   9.2966061  28.0180359 -21.9343166   9.6284676
  27.0299816 -20.9448643   9.0610905   7.8641596 -13.9446163 -25.1960602
   8.7583046 -13.9710360 -25.5619259   7.3360395 -13.9498119 -26.0087261
 -12.0710926 -31.5286102   0.3008017 -11.1773777 -31.2205296   0.0988031
 -12.6070452 -30.7930412  -0.0259400  -0.8149284 -47.3376350  16.4605980
  -1.5214478 -47.1591797  17.1876812  -0.2587056 -46.5138855  16.5756092
   8.3390388 -31.2992249  -0.6050550   8.2564058 -32.0475197  -1.2204568
   9.1922121 -31.5434399  -0.2235727  40.1684914  -0.1127842 -24.9448128
  39.6958618   0.7316197 -25.1893444  41.1094208   0.2681484 -24.9096050
 -39.3651009  -1.6040630 -20.4506493 -38.7975731  -1.1561788 -21.1545353
 -38.7238426  -1.6216241 -19.7296848 -16.7534370 -46.6509781  -0.6385877
 -17.5236511 -46.2470169  -0.2147742 -16.6895313 -46.1296463  -1.4972481
  -8.6783886 -36.7193489 -29.2201233  -9.3828621 -36.8268204 -28.4799633
  -8.0631599 -37.3519859 -28.9117470 -24.9447231  34.4202385  -4.8861175
 -25.8441181  34.8393898  -4.7652955 -24.7007961  34.2046089  -3.9687569
  15.9548378 -26.0435524 -10.0228405  15.6079359 -26.8735714  -9.6426439
  16.6346493 -26.4469910 -10.6219711  -8.1597767  10.8089647 -38.0919571
  -8.3810787   9.9123449 -37.7113876  -7.4059014  10.4767075 -38.6878586
 -15.1500568  -0.5905362  24.8949947 -14.5580597  -1.0976543  25.4844151
 -15.0952616   0.3237422  25.2771416 -41.7313766  18.5247631 -16.3557339
 -41.2746010  18.2564526 -17.1618347 -42.3883629  17.7962189 -16.3055878
  40.9357300  21.4434032  20.2238350  40.5600853  21.2310600  21.1069927
  41.8091316  21.7831097  20.4633560  25.2876091  32.1315460   9.6378393
  24.5862846  31.7316170  10.2076654  25.5797596  31.2902336   9.2134876
   4.6521583 -10.4366274 -25.0411816   4.1665730 -10.4380865 -25.8636398
   5.4566326  -9.9020357 -25.2427158  27.6274414  -1.1312401  38.2386131
  27.9298096  -0.9062961  37.3457260  27.6781998  -2.1168587  38.2024002
  31.9461708 -20.4220295  10.2594051  31.0468788 -20.7441921  10.5222521
  32.3222656 -20.2058392  11.0796366 -38.1831627   0.0551640 -22.6060963
 -37.3014183  -0.2740511 -22.8171215 -38.6253624   0.0412740 -23.5285988
  44.3998718 -31.2217636   5.9155517  43.7376976 -30.8589611   5.3554330
  44.8945732 -31.8508625   5.2744679 -12.2723570  32.4268265 -25.0562210
 -12.3596506  31.5330029 -24.5380192 -12.1987333  31.9848938 -25.9665642
   8.7909069  22.7617359 -32.3054886   8.3059616  21.8997917 -32.2996597
   9.1274271  22.8384266 -31.3776455  26.4066601 -37.5236816  -7.1040726
  25.9297867 -36.9268608  -7.6996713  25.7722702 -37.7599945  -6.4089856
 -21.8997211  -8.2390614   3.7015843 -21.6040096  -7.4943037   3.2101240
 -22.2829266  -8.8018198   3.0851264   8.0534296 -30.3006268   3.4787970
   7.9092765 -30.9618702   2.8283966   8.6376629 -30.6945744   4.1303368
   3.2221141  36.6846886 -22.4066334   3.0006788  35.9562607 -22.9828014
   2.8111172  36.4328537 -21.5457687 -20.1405926  -6.5904946 -17.1727238
 -20.2951431  -6.3593788 -16.2193241 -19.2785835  -6.1191096 -17.2972145
 -33.5063133   9.1371307  25.7679119 -33.4565277   8.5000944  26.5196533
 -33.5409927   8.4817095  25.0199184  -6.6921649  17.9152775  33.5631447
  -5.7855978  18.3177414  33.7036743  -7.2509170  18.6429501  33.9449043
   2.3243527  45.3693466 -15.8725243   1.7511847  44.8965073 -16.5401649
   2.1006424  46.2893867 -16.1323090   8.9694204  32.4905472  19.3081703
   8.2975206  33.1983910  19.3074951   9.0378332  32.2404671  18.4059677
   8.5075417 -28.1788139 -19.8570023   7.7703390 -28.5467663 -20.4397163
   8.3867626 -27.2227058 -20.0883083 -35.0058594  -0.1719451 -37.1266403
 -34.4547920  -0.8275802 -36.6088867 -35.8673820  -0.5948684 -37.0712242
  -6.2078276  -4.0038776  18.8768158  -5.6891108  -3.4528451  18.3400860
  -5.6339836  -4.2010689  19.6321507  35.3605423  -7.7240620  17.1260891
  35.6851616  -7.2669940  17.9337730  36.2555161  -8.2720909  16.9657192
   2.9139521   9.2179155  39.0935783   2.1537166   8.8381834  38.7278290
   3.6025994   8.5872030  38.9432106  11.1114216 -27.8177452   5.0539765
  11.2548685 -28.7254257   4.8563428  10.7737379 -27.4296436   4.2031350
  -0.4048651   7.9593582   9.6364088  -1.3775507   7.9880042   9.8825130
  -0.4544697   7.2236047   9.0278721  -8.4394417 -22.2129917  -5.4823308
  -7.8416524 -22.8701172  -5.0295086  -7.8935018 -21.4366398  -5.4585962
  32.2734528  26.9888020 -13.8181009  32.7576561  27.8352661 -13.8133621
  32.8207436  26.5032349 -13.1819782  43.9810181 -12.1092396 -27.0179768
  44.8930893 -11.7637911 -27.1269436  43.4321747 -11.4088793 -27.4409428
  28.9038067 -23.0348949  -1.6644377  28.9757366 -22.6310863  -2.5638058
  29.8126812 -23.2014999  -1.4047145 -14.1464758  12.8285313  14.2150793
 -14.6489258  13.5941820  14.5803661 -14.2646942  12.1660833  14.9414330
  14.9317741  28.0057392 -13.6428957  15.2096529  28.5785599 -14.4118757
  15.1548672  27.1008320 -14.0729246 -15.8465662 -32.6266899  11.2391834
 -16.5733604 -33.1227226  10.9410257 -15.3162022 -32.4036598  10.4893389
  -1.0356491  16.9661808 -37.9031067  -0.8620781  16.3086643 -37.1484718
  -0.3398823  17.5842514 -37.7073364 -29.3290062  19.2269802 -29.9700165
 -28.5183659  18.8051319 -30.2288170 -29.1390533  19.4067211 -29.0451183
   8.4113522   0.0549035   2.8477955   8.9061279   0.8917625   2.6597977
   8.4601583  -0.3668959   1.9403070  34.9155846  23.0775013   4.7678328
  35.6036949  22.5248108   5.2519803  34.3700676  22.3724136   4.3511038
 -10.5335455 -12.5265694  40.0154152 -11.1668291 -12.6917906  39.2481155
 -10.7400885 -11.5898581  40.2516251  30.1509781  11.9261856   9.2635345
  30.2180424  11.4206305  10.1678171  30.1695900  12.8615026   9.6291780
   7.0949292  28.0850811  -9.1480131   6.4697104  28.7925816  -9.1530514
   6.7608428  27.4078159  -8.5186443 -35.6329803  33.1706581  -6.1109972
 -35.7989693  33.9099960  -6.7269583 -36.1464653  32.4958000  -6.4621005
   7.0270495   2.1359539 -37.1198425   6.7116776   1.2508254 -37.3465157
   7.6461020   2.2694726 -37.9444275  -2.9283659  -2.9434168  34.0117683
  -2.4245200  -2.2298274  34.3117065  -3.8803234  -2.5375366  33.9341774
  39.7073631 -13.2617102  -1.0596107  39.2125778 -14.0820732  -1.0031645
  40.6834564 -13.5924711  -1.0702548   2.3829796 -36.4466133 -19.1534386
   2.5849605 -35.5670166 -19.5810089   1.6577870 -36.1233940 -18.5380688
  11.0100250  -6.3069053 -34.4952888  11.6517124  -7.0823321 -34.4770851
  11.5370646  -5.5636148 -34.6332054  19.7805786  42.5629845  -7.6194129
  20.6770802  42.2393074  -7.6169276  19.3003883  41.7302589  -7.8517880
 -23.9899139 -21.3313332 -28.9585285 -22.9914112 -21.1978626 -28.8912544
 -24.1048546 -21.2155933 -29.9094620  21.0140095 -36.0734100  -4.7723351
  21.2658501 -36.6256523  -5.5842371  20.0675278 -35.9470596  -4.9293704
   0.8557974 -28.7441292   3.7557023   1.3002319 -28.5757370   2.9123948
  -0.0792451 -28.2871418   3.5079744  -9.8801470 -49.1750755   4.9615593
  -8.9285307 -49.1004143   4.5657549  -9.5935946 -49.6815910   5.8141961
  -0.8551608 -29.0610638  -0.1612114  -0.7335790 -30.0295429  -0.2547528
  -1.5402286 -29.0430794   0.5101931  -8.4943457  29.4748402  15.2690859
  -8.3144045  29.3126087  16.2117939  -9.4173737  29.8175144  15.3466139
 -22.4473305 -11.6665573  27.3043003 -22.8688507 -12.3423882  26.7345028
 -22.5670948 -12.0450935  28.1799679  -7.3898888  40.5808067  -2.5538974
  -8.2786388  40.3163071  -2.8934813  -7.4894848  41.4409981  -2.1918571
  40.2104340   3.9965427 -34.2040253  40.9796524   3.4036379 -34.4215851
  39.7671280   4.0906787 -35.0540810  42.2710457 -12.0553627   4.5331063
  42.7162209 -12.7444582   5.0718455  41.5544243 -11.7505188   5.1346564
 -24.4900398  -4.2079678 -23.9721203 -24.2200794  -3.4253283 -23.4773350
 -23.6335239  -4.6924953 -24.0781364   0.2542920   1.8413613  10.9372139
   0.7415112   1.2349002  11.5298166   0.9706144   2.4546728  10.6885891
  -3.3608494 -26.4332352  13.3200254  -3.2608573 -26.1665516  14.3258457
  -2.5279133 -25.9125004  13.0254107   3.3782260  -2.3501227  46.1033440
   3.1224058  -1.4701626  46.5044022   2.5350342  -2.5850224  45.6311684
  20.7511921  47.3423309  -9.0318003  21.4673195  47.9725914  -9.2822561
  21.0060387  46.5694504  -9.5455866  13.8769970 -14.2017374 -46.1005974
  14.7677383 -13.7675791 -45.9474525  13.6118393 -14.1659746 -45.1459351
 -25.8572025 -20.7308331  27.9600754 -25.6009140 -21.6966076  27.9563599
 -26.6039772 -20.7578583  28.5349903 -17.7789803 -32.4241753  18.4332104
 -16.9619198 -32.8856430  18.1836910 -18.4448395 -33.0255280  17.9909134
 -22.8784389  25.1083317   7.7889886 -22.0023575  24.8818836   8.1223850
 -23.4302025  24.7698631   8.4892559  -8.5142183  -4.4667854  17.8725700
  -8.4877453  -3.6140599  17.4241238  -7.5454307  -4.5580549  18.1370010
 -27.9821224   5.7585454  16.6892738 -28.8207493   6.2566981  16.8567467
 -27.4398613   6.2322812  17.3760166   6.8756394 -16.5943432  20.7096024
   7.3919373 -16.3266201  21.5120144   6.0840344 -16.9688168  21.1742802
  -0.3694628  19.0930157   4.5712390  -0.3392585  18.5796547   3.7654438
   0.0605811  18.4220982   5.1772723  31.4803619  -1.3855944   2.9909570
  31.7194023  -1.4170924   2.0392683  32.1841011  -1.8606867   3.4068000
 -16.6918335  -0.9290099  27.8195858 -17.1759796  -0.3518299  28.4268818
 -15.9534378  -0.2821737  27.5123749  -4.1543889  12.1036234 -40.4206085
  -3.1887445  11.8807106 -40.3608360  -4.2266955  12.9493151 -39.9725456
   8.4568272  10.9636478 -30.9530296   8.3715925  10.0499268 -30.6409397
   7.5034499  11.1998835 -30.9349022 -23.9693356  -3.9881082   7.6019258
 -24.5602798  -3.2693446   7.9099236 -24.1245480  -4.5768919   8.3582878
  15.8856850  -2.1471910 -16.4301968  16.5093803  -2.1536057 -17.1687031
  16.1186619  -1.3444918 -15.9640226   3.8015249  -7.6647668  -6.7303391
   3.6532364  -6.9248896  -6.1364293   4.7641697  -7.8317442  -6.6387687
   8.5164747  -6.0052843 -11.9579973   7.6441846  -6.1582398 -12.3884859
   8.9058466  -5.3085337 -12.4903221  31.5005589   3.4256659  38.9489784
  31.7006378   3.8964531  39.7960167  31.0709801   2.6306398  39.4064140
  21.0104122  40.6027107  16.3270626  20.6097336  41.1851997  15.7131243
  21.9581623  40.7712059  16.1672268  42.1295509 -19.2374763  -2.3375249
  42.8470764 -19.9092426  -2.4423783  42.6735878 -18.4331074  -2.6210132
 -12.8580265  16.6629963 -21.9231853 -12.7510710  16.4614468 -20.9605236
 -13.7403336  16.8582249 -22.0191898  11.9658575 -11.0999403  10.6571512
  11.4010315 -11.8568172  10.6283636  12.2540560 -11.1331053   9.7063494
 -13.4567652  11.1270733  29.8005905 -12.7008715  11.7526903  29.7657719
 -13.5097027  11.0413570  30.8073940 -35.8761253   8.8274841 -23.7395878
 -36.0481682   7.9830165 -23.2575359 -35.3428307   9.2586956 -23.0946522
 -11.4787664  -7.4392805 -15.9204273 -10.9617958  -7.6293402 -16.7894726
 -11.5999012  -6.4783874 -16.0135994  20.7740383 -20.2969170 -42.5632095
  19.9080334 -20.7114983 -42.3893394  20.6147232 -19.8887615 -43.4259224
   1.4765050 -27.4999657  35.1065826   1.8044553 -26.6187229  35.5051918
   2.3034875 -27.8558426  34.8018417  19.7835732 -33.0648575  13.8674507
  19.3803425 -32.6992340  13.0649300  19.4171658 -32.4950218  14.5633106
  16.0487175  -6.6643977  14.2842474  16.1940289  -7.6065011  14.3936100
  16.8962231  -6.3079739  14.0601053 -34.9339485  30.0384369  -2.7295787
 -34.9747276  30.8392410  -3.2895799 -34.1068840  30.2763977  -2.1868713
 -25.4222641 -15.2968693   3.0851460 -24.5690880 -15.5350456   3.5063903
 -25.1340408 -14.7419720   2.3842125 -24.5945549 -22.3998966  11.3636122
 -24.3498745 -22.8762455  10.5210037 -25.5786209 -22.3438873  11.2073908
 -15.0711498 -17.8442364 -25.6153088 -15.3352365 -18.2256775 -24.7901287
 -14.0916786 -17.8993320 -25.4952259 -21.3676376 -10.5142603 -38.3213234
 -20.5902367 -11.1446428 -38.1416473 -21.2714882 -10.5188055 -39.2892342
  11.8694143   3.7558174 -27.6024208  11.6366520   4.6894712 -27.2921829
  12.6319637   3.5553708 -27.0023823  15.7713203 -35.2518806  16.2103233
  16.1383972 -34.7627106  16.9770145  15.9697418 -34.5448837  15.4845133
  10.4828682  -6.1840329 -45.4688988   9.6541481  -5.8164210 -45.0866623
  11.0165129  -5.3320084 -45.6258278   4.3265500  47.8158760 -10.7686501
   4.7667127  47.1135597 -10.2225828   4.9045000  47.7772827 -11.5531588
 -31.2291355  21.5393887  18.0141277 -31.4087925  21.6944466  18.9470444
 -30.8745022  20.5976162  17.9745750   8.7136908  26.9948158 -20.8989353
   8.3981256  27.3281765 -20.0261917   8.3741856  26.1429596 -20.9480362
  40.7120171 -27.8763618  14.9656410  41.2753677 -27.4485760  15.6690760
  41.4390907 -28.4053345  14.5200863  13.3128452 -15.1341105 -41.6689034
  13.3020658 -16.0881519 -41.4224854  12.4380035 -14.8460398 -41.2862473
  -1.4280616 -21.5164852 -36.8554039  -1.3615440 -22.4618645 -36.6260147
  -1.0206542 -21.5897598 -37.7461395 -26.8221207  21.3727722 -35.7222939
 -27.1896858  20.9818058 -34.8729935 -26.2474823  22.0897636 -35.3684692
  -3.2826939  14.6121588  19.5129738  -3.4817736  13.7846098  20.0379066
  -4.1765680  14.6675091  19.0662766   1.1694448  23.5954399 -23.6271915
   0.5393641  24.4008064 -23.4660187   1.9847202  24.0993004 -23.7781239
   4.4550815   5.1222916 -18.0959949   4.7307062   4.5537915 -17.3643551
   4.6430821   4.5939445 -18.8942013   5.1881213   6.6861920 -46.3224564
   4.6459255   6.6057734 -47.1619301   5.8746982   6.0846577 -46.5465240
  -1.9658337 -21.0638676 -41.0322418  -1.9325584 -21.9960880 -40.7576065
  -2.8246131 -20.7510815 -40.7404060  18.4198360  27.4185009 -24.2097702
  19.2986240  27.2479954 -24.6374187  18.2291336  28.3026791 -24.6000805
  13.4022427  50.9531555  13.1380329  13.0792570  51.5685501  13.9126091
  13.8572865  50.2584229  13.7296629  15.9601583 -10.6145658 -40.3198166
  16.8884602 -10.6748285 -40.0517235  16.0514412 -10.1718359 -41.1727104
  11.6925287   7.3319454   4.4667912  11.2659550   7.3240671   5.3561091
  12.0802717   6.4178820   4.4917946  -5.3859329  15.2462664  21.9721012
  -5.3334975  14.7472811  22.8677578  -4.5942159  15.8804913  22.2086315
   4.6475387  -6.5302939 -43.2480202   4.3764653  -7.4331026 -43.2409935
   4.1734099  -6.1417065 -44.0020981  27.9535904 -21.9549961  -8.7714128
  27.7927666 -21.1575375  -9.2848606  27.0911465 -22.1438103  -8.3640985
  21.0332355  24.5441494 -25.0316067  21.0082283  25.4559402 -25.3194828
  21.3646030  24.6431599 -24.1128216   3.2253759  -0.1510362  25.1562748
   2.8719573   0.3243274  24.3073997   2.3787296  -0.1357480  25.6378460
  -0.1066405  23.1497822  16.3976040  -0.7966906  23.5253048  15.7932825
  -0.6584086  23.2028236  17.2384949 -15.6714935  16.4783611  -1.6015987
 -16.5461597  16.0342617  -1.7742277 -15.8803101  16.8243961  -0.7289554
 -31.8959160 -16.5039711   3.2548652 -31.3575230 -17.3598042   3.3690846
 -32.7025108 -16.8006134   3.6844239 -15.6038513  22.7592125  14.6342249
 -16.3556652  23.1292057  14.1631155 -15.2385712  22.1709042  13.9234848
 -14.9235706 -29.5508442  -5.4344368 -15.8672924 -29.2953186  -5.2181025
 -14.5424385 -28.7044144  -5.6390266  11.7507935  -5.9337735 -25.2535076
  10.8019896  -5.7164936 -25.1822186  12.1109743  -5.0189915 -25.3524132
  19.1369019 -30.3397064  11.1015806  19.1813431 -30.1169472  12.0770721
  18.8725109 -29.4397068  10.7900333 -41.3666344  -8.2943773  29.9926567
 -40.7231293  -9.0576582  30.2490711 -41.2028999  -7.7898707  30.8236084
 -30.8004360  10.4142103  -5.3976965 -30.4964123  11.2661209  -5.7866340
 -30.2749844  10.3602419  -4.5639744 -15.9630270   9.0461369  30.0422268
 -16.1671677   9.7691364  29.3691559 -16.2104683   9.5560074  30.8335075
  14.2874212   0.7012658   6.4115415  14.5508919   1.6283211   6.2765050
  14.3834085   0.6869764   7.4131131  15.9176273  35.8992653  24.8498898
  16.8320980  35.6688461  25.1073036  15.4482851  35.7650757  25.6955624
   1.1144756  16.7933826  38.9552650   1.6201714  17.1716900  39.7164383
   1.7992516  16.7500648  38.2445335  17.8310642   7.1041698  22.9280396
  17.0032272   7.2093468  22.4657688  17.6109200   6.5017848  23.6092548
 -32.8779030   3.2732468 -24.1312428 -32.5812759   3.5329254 -23.2123508
 -33.7942162   3.5675600 -24.1423588  13.9595804  46.0690842   5.1123128
  13.3739033  46.4471283   4.4082170  14.8449812  46.3312073   4.8115191
 -30.7500668   9.0209942 -37.4315453 -31.4640999   9.6660271 -37.5475731
 -30.6952744   9.0366774 -36.4301987  13.7238359  11.1883116   4.3699656
  13.2153873  10.6819639   3.7157328  14.0089569  11.9712477   3.8262410
  26.9079018 -25.0127468  14.2087431  27.6701088 -25.5281754  14.4659538
  26.4386597 -25.0456524  15.0994291  18.6332188 -29.2761002  17.7172928
  19.5354366 -29.2947388  18.0362568  18.4778519 -28.2958908  17.6847782
 -41.3891487   6.7074265  15.8782320 -41.2381477   6.1280813  15.0696135
 -40.4709930   6.8155274  16.2309666   6.7352862 -24.1276512  13.4680080
   6.7191648 -25.0870171  13.2394743   7.4969058 -23.8519573  12.8516626
  -4.4782109  12.6428347   5.1302810  -4.9257936  12.8379869   5.9451208
  -4.6840396  11.6680536   5.0769033 -10.2186556 -41.6925201 -22.5588417
  -9.7960691 -41.2290611 -23.3284035 -11.1066151 -41.8095245 -23.0130138
  31.2649956 -26.1094398  26.6068382  32.0602036 -26.2623749  27.1032829
  31.5217419 -25.3628807  26.0474358   6.9455361  29.5447311  -1.0437984
   7.8077693  30.0270710  -0.8698973   6.4645157  30.2345066  -1.5179517
   6.4901385  -1.5832274  -1.1012098   5.7589154  -1.0179207  -1.4112356
   6.6228590  -2.0643654  -1.9379612  -1.9303216  26.3609428  12.8966579
  -1.0103416  26.6578369  12.9770851  -2.3947382  27.0706062  12.4521227
  17.0331631   5.0106034 -14.6556664  16.9860649   5.9566107 -14.9527483
  16.4187164   4.5820532 -15.2833939  11.2480955  32.9776917 -11.3511839
  11.6766119  33.7415314 -11.7883902  11.9446049  32.2711792 -11.4729700
  14.9485788  26.8995533   2.2657909  15.8890047  26.9732990   2.4236717
  14.9257841  27.0422592   1.2359393  -9.2093182  14.6248350  -2.6608686
  -8.2824097  14.3578997  -2.3311269  -9.1253157  15.5904446  -2.6297166
  29.5487347  11.4914370  27.4136238  28.9419594  11.9311981  26.7936287
  28.9874077  11.5157337  28.2297726 -37.9902153  -4.2350531   0.8519639
 -37.5011330  -3.5301671   0.4918820 -38.4349213  -4.6531787   0.0559709
   2.5923538 -11.8208265 -11.4726448   1.8958138 -12.0545597 -12.0924644
   2.2235622 -12.1571388 -10.6305637 -14.5842400 -25.7010193  15.7506809
 -14.6050882 -26.3624172  15.0842257 -15.1967001 -25.0701618  15.3770247
 -22.3179760 -31.6853867   8.9902420 -22.0786858 -31.8818569   8.0843306
 -23.1061039 -31.1053467   8.8809071 -18.6393642  15.6711435   2.0019674
 -19.2776394  15.4605293   1.3094050 -18.6176643  16.6404133   1.9091227
 -42.6012688  27.0913353  14.6844196 -41.6376381  27.2598019  14.7249346
 -42.8252563  27.9636040  14.3774881  35.3163261  14.1481524  25.4247723
  34.7704010  14.7069845  26.1159153  35.0927391  14.6576509  24.6003151
  10.3370724 -35.2080841  35.7690849   9.8734636 -34.9503326  34.9084587
  10.1034966 -36.1637230  35.7691536 -24.0948067   2.4413438  30.4407635
 -23.4544849   2.7086008  29.7025509 -24.8015862   2.1213872  29.8870029
  32.4551048 -28.5576382  11.1728325  32.4036026 -28.7846470  10.2297392
  32.4594040 -29.4442234  11.5264359  -3.5803947  21.5014915  37.7547836
  -3.8180840  21.6828671  36.8154640  -4.1437631  22.1953354  38.1641045
   2.9238729 -42.7197952  -7.0022855   2.1762545 -42.8367691  -6.3595610
   3.4356828 -42.0216217  -6.5350966  -9.2714233  28.2581558 -37.5449409
  -8.3330631  28.2563858 -37.8042107  -9.1858349  28.4826546 -36.6282196
 -11.5832357 -12.1162567  10.4025917 -11.1256676 -11.7195139  11.1855726
 -10.7945108 -12.2811928   9.8324289  26.1317673  11.6388597  35.2130470
  26.0506058  12.0941553  34.3769379  27.1195126  11.7154703  35.3388329
 -22.2981510  14.6201715 -17.4922695 -22.2719688  14.1080675 -16.7076359
 -21.9292755  15.4835033 -17.1732635  13.3791809  29.6662216  27.4651794
  12.4393978  29.4738350  27.3591671  13.4871082  29.2187824  28.3194561
  42.3471375 -11.5233707 -31.7622318  42.7655983 -10.7084389 -31.5559750
  41.5858345 -11.5080481 -31.0483170  -2.0863569 -12.9088736 -39.7296638
  -2.0670371 -12.6710052 -38.8077011  -1.6049623 -12.1036577 -40.0337334
  13.4975052  -5.7278171 -51.7283516  13.7966871  -6.6230159 -51.7936592
  13.9209070  -5.4207077 -50.9092903  -2.2641585  12.4926834  38.7315559
  -1.6481146  13.2660360  38.9696579  -1.6172543  11.8246078  38.7057266
  -5.1444073  14.6102772 -42.4296875  -5.3328671  15.5559158 -42.1991501
  -5.1670394  14.7601004 -43.4186707 -12.6877384 -45.3015442  -2.5211396
 -11.7937136 -44.8234558  -2.3927865 -13.1610603 -44.9004898  -1.7109603
  32.6701660   0.4984413  14.4516306  32.5458755  -0.3955571  14.1596413
  33.6467438   0.6173844  14.4711246  -2.3654842   9.9680090  30.7083302
  -2.1655881   9.0530405  30.9300461  -3.2587521   9.8047428  30.3392372
  28.2219810 -13.1138144 -12.1391973  27.6346741 -13.8729258 -12.4005213
  29.0977478 -13.4221420 -12.4559441  36.8996811  -4.0309300  -8.2166920
  37.3524437  -3.8745999  -9.0914011  37.6698303  -4.2843103  -7.6556401
 -39.4633522  -9.6385736  31.4952774 -40.1475906 -10.0584278  32.0030975
 -38.6790390  -9.9854660  32.0719185  17.9244556  38.5011711  -1.9969140
  18.1465168  37.7005424  -1.4347967  18.5070496  39.1697617  -1.5411022
  10.1809778 -38.7469940  -9.4367809  11.0262575 -39.3666763  -9.4733925
  10.3976221 -38.2829514 -10.2810278   6.5240064  16.8397007 -25.6578217
   6.1151772  17.0569401 -24.8406334   6.5801239  17.7199326 -26.0569172
  -1.6994393 -44.6039886   1.2457683  -0.8999752 -45.1001549   0.9380376
  -2.3954899 -45.2834854   1.1791618  -5.6040864   0.4399720  16.4226761
  -5.9594126   1.0545155  15.8295078  -5.2788758   0.9944229  17.1240768
  13.1628742 -10.7839003  38.2059135  13.0323887 -10.9577389  39.1673927
  12.4791632 -10.0382032  38.1306229  22.3221569  26.1673336 -14.5322390
  22.7913513  26.1191864 -13.7160149  21.5553913  25.6471252 -14.3186874
 -15.6594133  -1.8188512 -16.8012466 -15.2649956  -2.2109191 -17.5674381
 -14.9900570  -2.1340196 -16.1101036  11.0974541  -4.4660740  44.3954887
  11.0262661  -4.0079365  45.2708778  10.7181664  -5.3241744  44.5888863
  22.5028305  -7.3791051  19.3499737  22.5664234  -7.8233981  18.4761276
  23.2781410  -7.7441125  19.7860622 -16.6162376 -41.2451057 -23.2444229
 -16.5803070 -41.9314575 -23.9333210 -17.5822811 -41.1731071 -23.0904140
 -13.4356070 -31.0766926  -9.4139166 -13.2538471 -31.2452641  -8.4690657
 -12.6751890 -30.5588531  -9.7205534 -37.7292900 -27.0781803  20.8845387
 -37.1430206 -26.5141888  20.4080734 -37.1187210 -27.9120770  20.9328194
 -43.6329689  -1.5216616  -4.6780100 -44.4371109  -1.0093323  -4.4478178
 -43.0012627  -0.9806117  -4.1146755  -0.1287661  -1.5508730  -0.4450870
   0.4270945  -2.3762059  -0.2821497  -0.8206224  -1.7737691   0.2073930
  -4.4284134  27.8743153  37.7854767  -4.2317653  27.0737152  37.2987099
  -5.2303023  27.4759922  38.2654495 -28.2876148 -20.4917736 -16.0028458
 -27.8831043 -21.2585335 -15.5285892 -28.0669346 -19.7535858 -15.3549461
 -38.3326645  17.9294777  -1.3108243 -37.4444847  18.3865185  -1.2530789
 -38.3912659  17.9748707  -2.3553474  18.3559608 -27.6966057  27.1243057
  18.1158352 -26.9285698  27.7012463  19.1648521 -28.0122929  27.7410374
  -6.5709491  40.7568932 -26.0345821  -5.9704609  40.4593124 -25.3408947
  -6.6102462  39.9477272 -26.6227360  -0.9041135 -23.6225014  14.4506807
  -1.5306714 -24.1405144  15.0225239  -1.2462269 -23.9559193  13.6023378
  -4.8953619 -16.1854935  23.7535591  -4.4136806 -15.3631763  23.7340984
  -4.1640029 -16.7588902  23.3783474  -1.8365811  30.2524261 -11.7312403
  -2.0653765  31.0399628 -11.1387444  -2.2907495  30.5411930 -12.5380268
   8.3024712  39.4591904  -3.6779003   8.6746807  38.6712837  -3.2637656
   9.0928936  39.9441757  -3.9581127  41.7065773 -27.8542824 -11.0705490
  42.0188675 -28.6156178 -11.6088676  41.0698090 -28.3422718 -10.4709196
   9.0633726  -5.1802535 -22.6115799   8.0754681  -5.1594853 -22.5254269
   9.1274319  -4.9289851 -23.5610561 -16.1299343 -14.9167576 -15.5989685
 -15.4301910 -14.2312689 -15.3591728 -15.5784607 -15.4989576 -16.1286964
  -8.8766003  34.9521828   3.0589824  -9.0440073  35.6204376   3.7524121
  -9.7745256  34.8834076   2.7505078  42.2677727   2.7977014 -18.3186398
  43.0975418   2.2980897 -18.2446365  42.1220398   3.0498393 -17.3672619
  31.5807171  19.9177399  13.8972321  30.9927082  20.6834774  14.0492201
  31.1628647  19.5653381  13.0676899 -20.6698723  16.6603909  -3.1787179
 -20.9883118  17.5349388  -3.4953685 -21.5805511  16.1930656  -3.2198386
 -18.7697601  -4.7309179  11.2088633 -17.8908215  -5.1160197  11.0987749
 -18.5390511  -3.8256721  11.4115200   3.1906390 -15.7309389 -14.9276075
   2.5433946 -15.7061329 -14.1778450   2.6239843 -15.9456997 -15.7052250
  -0.8060190  14.0451870 -22.8879566  -0.3709626  14.2409039 -22.0252590
  -0.5943038  13.1058149 -22.9781685   7.9612842  23.3838654 -10.7754116
   7.6090336  22.4562569 -10.8004055   7.6010046  23.7080364 -11.6202860
  17.7957726   0.2252698  -6.3579044  17.6749115  -0.6472592  -6.8462901
  18.7252140   0.3982033  -6.3677096  28.5382023  -7.6645384  10.1815872
  28.4574986  -7.0202317  10.8884783  28.9092636  -7.0266042   9.4491606
  -7.8425417  -9.2165899  39.2503738  -7.5338626  -8.2662430  39.1400566
  -7.6734977  -9.5643749  38.3098679  11.7702217  34.0348473   4.4614530
  11.1879330  33.2879448   4.1608744  12.2578239  34.2738609   3.5976689
   4.5857882 -29.1526203 -32.4482307   4.7218013 -28.2364273 -32.0354996
   5.0949693 -29.6668205 -31.6938839   9.3944788 -24.8888855 -40.0388565
   8.9626045 -24.5685749 -39.2062569   9.8136044 -24.0383682 -40.3781853
  -1.6319808 -37.9175758  14.1694641  -1.3414099 -37.0369606  14.5361309
  -0.8490884 -38.4666405  14.3464394  -2.9057794   9.2824583 -16.3057709
  -2.4809992   8.4609470 -16.5146599  -2.8421423   9.3758059 -15.3762617
 -11.1625900 -18.6726360 -29.4194927 -10.5363121 -18.3704834 -28.7379208
 -10.5959187 -18.7847748 -30.2224655  -1.0184442 -39.1716805   5.7532959
  -1.5791073 -38.4975204   6.1927710  -1.1432225 -39.0667191   4.8122573
  -3.3002887  12.2696419  35.9106445  -3.7931228  13.0597105  35.6034889
  -3.2686656  12.3294802  36.8456573  12.7955599  16.3319187  15.9785500
  13.6982775  16.0041866  16.0147915  12.3960829  15.7757521  16.6790752
   2.1974578   3.1426835  13.4271078   1.3387934   3.2635677  13.8769484
   2.4396744   4.1056371  13.3755417 -19.1531219  -3.9811161  -5.6488256
 -19.7656364  -4.7017803  -5.4960918 -18.5661907  -4.0620432  -4.8973594
  -1.5432409  40.5721817  13.4748974  -2.4030123  41.0045204  13.5893936
  -1.0967520  40.8393021  14.3230438 -15.3272924 -16.2233372  -8.8890438
 -15.7848740 -17.0794716  -8.6911306 -14.4103146 -16.3668079  -8.6039228
  29.2863007   2.7167737  12.8836689  30.2191429   2.6177368  12.6077757
  29.2283058   2.0954242  13.6450977   2.4356050  46.5600700  25.5364342
   2.6324465  45.6018181  25.7558155   3.2651525  46.9205589  26.0315819
  33.5109291  17.4619980   1.0741509  33.5406303  18.3531780   0.8091800
  33.1845436  16.9079399   0.3803192   1.3178252  -5.7447238  36.6414146
   1.1446760  -6.6908259  36.3361931   0.5474867  -5.3349066  36.2748146
  13.8414059 -17.1877098  33.2295227  13.7532949 -16.7088242  34.0723076
  13.3088684 -17.9677868  33.4130745 -11.5622540 -44.0608559 -20.8073196
 -11.4424753 -44.8227997 -21.4262848 -12.0121183 -43.4514694 -21.4307117
   0.4432772 -12.2419615  30.5170650   0.0488774 -11.7046862  29.7945690
  -0.1569588 -12.0739040  31.2293587  21.9569893 -12.4561415  -7.2587843
  21.5646343 -12.1949158  -8.1380482  21.5605526 -11.7000599  -6.7121816
 -27.9126873 -27.8011360  14.5726738 -27.3130493 -27.8889923  15.2544422
 -27.4159718 -27.7171745  13.7743711 -31.5654316  17.8516788  -1.7105712
 -31.1966038  18.3705177  -2.4865150 -32.4425125  17.6829815  -2.0979249
  25.1639042  21.6135502  -3.9118569  25.1889076  20.9986115  -4.6754704
  25.0360260  21.0207291  -3.2028346 -18.4650059 -33.2480888   9.6969919
 -18.8083210 -33.1132431   8.7960691 -18.8832283 -32.5288162  10.1923513
   7.5919275   0.7644198 -32.1797943   8.5035896   0.4903864 -31.9147739
   7.5771379   0.3556577 -33.0698509   5.1194353  16.1677227 -29.3666077
   4.6308413  16.3505611 -30.2324677   4.9969211  17.0547314 -28.9860210
 -38.4075279  22.1500530   1.4488865 -39.0769691  22.7570896   1.8142796
 -38.8979797  21.6627388   0.7749677  -3.8154461 -36.7365189 -11.2133846
  -3.3759499 -37.1532440 -11.9587612  -4.7573872 -37.0655594 -11.3345823
  19.7236080 -23.1331005   9.8434515  20.2287521 -22.5397301   9.1905336
  19.8847466 -24.0064869   9.3876572 -33.9976425  24.2458668 -24.8370323
 -34.1349258  23.3386631 -24.9941845 -34.8193436  24.6273975 -25.2013741
  -8.7297916  37.7787361  -2.4666314  -8.7889414  37.6661682  -1.5074970
  -9.6362562  37.5332909  -2.7310705  13.8000174  41.9120293 -23.0075951
  12.8601036  42.2738533 -22.9725151  14.2150097  42.8498917 -23.0291405
  40.0589981   6.7757587  -1.1976223  40.9310532   6.4498181  -1.6217588
  39.4943848   6.6618781  -2.0049574 -27.7906246 -17.1251678 -28.8659782
 -28.4248390 -17.6839008 -29.3473854 -28.3531666 -16.7800560 -28.1592712
  11.5023241   5.1150208  36.6175308  11.6639843   6.0777941  36.7805748
  12.3068352   4.8886762  36.1300888 -10.6993513  -0.7680435  38.3718185
  -9.8016853  -0.7694853  38.7942200 -10.8011856   0.2278276  38.2367668
 -14.4827051  13.3707399 -22.6837444 -14.5790653  14.3249655 -22.4307785
 -13.8571110  13.0759535 -21.9989414  -6.4817514   7.6472163  52.0693474
  -6.6433058   8.6810102  51.9970856  -6.6584153   7.5784030  53.0190430
  43.4279633  -0.1075619 -32.4984779  43.9562798   0.5636753 -32.0602112
  43.9759941  -0.8948220 -32.5337601  41.9141006   9.6365709  29.1213379
  41.1978493   9.1668825  29.5820084  41.8616066  10.5114336  29.4578304
 -25.4442539  14.0546341 -37.8042068 -24.9548092  14.5399218 -37.1165771
 -25.7057495  13.2720823 -37.3999786  22.5591049 -15.9509201   0.7012238
  22.1742954 -16.5938854   0.1551602  23.2169056 -15.5664120   0.1692592
 -22.6495838  30.4983768   7.9789629 -22.2207737  31.1880856   7.4298167
 -22.0180836  29.7924595   7.9210219 -37.8488617 -32.2778473   3.1441376
 -37.9041595 -33.0572357   2.6650167 -36.8989067 -32.0205574   3.2176180
  -9.5843573 -29.3046551  21.3156853  -9.9992285 -28.5331573  21.7018986
  -9.1373844 -29.6694565  22.1348763 -32.9574776  32.9434929 -21.0759888
 -32.5778198  32.0728416 -20.9102383 -33.8826218  32.7612534 -20.7688599
 -14.3737793  -9.9311800 -23.2320518 -14.5041351  -9.0836172 -22.7401829
 -13.4399977  -9.8416290 -23.5291157 -29.7383060  -4.2781401  10.0697002
 -29.4481220  -4.9635348   9.4372959 -29.0758533  -4.4545364  10.7956057
 -25.5365543  34.6966248  19.8995972 -24.6366215  35.1456070  19.8798561
 -25.7992077  34.9618645  20.7694759  37.6098824   4.3835187 -25.6273575
  37.3423119   4.5881763 -26.5771084  36.7435760   4.2360263 -25.2415104
  22.6311779  29.1026325   4.6655436  23.4665813  29.5946140   4.8692856
  22.5775986  29.2303371   3.7306681  44.2466850 -17.7452984  -0.7721065
  44.1865692 -17.3937130  -1.6919613  44.3320885 -16.9509697  -0.2411173
  29.9486008 -10.4694157 -17.2067089  29.7635326 -11.3848114 -17.4428082
  29.5432758 -10.3993521 -16.2967567 -22.9721603  35.6170731 -17.0054779
 -22.1624985  35.4752960 -16.4584236 -22.9967175  34.7933273 -17.4804077
  -2.4288466 -23.6981201 -26.3289070  -2.9680452 -24.1343536 -25.6607361
  -2.5747418 -24.3673611 -27.0680962 -29.8807983  11.3194799  28.2894173
 -29.7282219  11.5742397  27.3412647 -28.9186764  11.2477570  28.5317955
  35.1342545   1.9224966  17.4023952  34.3494644   1.3347155  17.2813721
  35.5691833   1.7397158  16.5493202 -42.7245750 -25.7212391  -7.6270070
 -43.4580956 -25.1762314  -8.0270157 -42.7672691 -25.3232574  -6.7203350
 -19.9930916  39.3905754  10.8773966 -19.8951950  38.4568825  10.7903051
 -19.4807339  39.6099281  11.6555672  22.2779427   1.6653366 -27.1521797
  22.6279335   2.5769083 -27.1353836  22.5824032   1.2990974 -26.3578434
 -38.5653801  -0.0950980  11.0198927 -38.2678947  -0.9734368  11.4069910
 -39.2485809   0.1483977  11.7063007  -2.6929069 -43.4602699   4.9924660
  -2.2789824 -43.7170410   5.8197598  -3.1140189 -42.5792198   5.2740660
  14.4073715  33.0281525   6.4898281  14.9407654  32.2485809   6.6445756
  14.4957952  33.1006050   5.5125456  -8.7978973 -37.9711609 -17.8680859
  -9.3940687 -38.7724304 -17.9140434  -8.8667765 -37.7338486 -16.9762707
 -27.8588696   5.3366570  42.7626877 -27.0501938   5.8220387  42.5471115
 -27.9229469   4.6319132  42.0706291 -22.6231728 -18.2618332   8.6559744
 -23.3499241 -18.8017082   9.1571054 -22.4542332 -17.5693874   9.3870420
  -5.5368485  23.8396130 -12.2989273  -5.0443349  23.3520775 -11.5059414
  -6.2920141  23.1873550 -12.3033161  -0.2916075 -33.4476166 -23.2753811
   0.5052079 -32.9323425 -23.4072227  -0.4086989 -33.4106255 -22.2814064
  -4.6886139  43.0714569  23.4600334  -5.2449851  42.3420486  23.2291565
  -3.9816899  42.6798134  23.9513359  22.7937756  -9.3855095 -40.0066948
  23.3052826  -8.6573143 -39.5612068  23.5197868  -9.9521322 -40.3851509
  38.6106262   6.9360342 -21.8087921  37.6827164   7.0246763 -21.9789658
  38.7134743   7.4626527 -21.0162010  13.1759920  41.1964111  13.6672459
  13.4223137  41.5622101  12.7990494  13.2664804  40.2628632  13.5715580
  24.9084110 -29.1390400 -16.8656406  24.2785721 -29.1411858 -17.6183968
  24.7043839 -30.0962410 -16.4978771  -4.0116839 -39.3060150 -27.9697857
  -3.0631471 -39.1691132 -27.9984722  -4.2571073 -38.3817673 -28.2236595
  13.3833284 -13.9981976 -49.0671577  13.3361483 -14.0852051 -48.1164551
  12.5076447 -14.4616623 -49.3198051   5.8442698  38.5156975  27.1701221
   6.1251273  39.4580688  27.2179604   4.9441519  38.7170448  26.6906929
 -10.5216799 -19.7111835  22.0733929 -10.1650887 -20.5696716  22.4730358
 -11.0191975 -20.1762657  21.3200607  11.7529459 -34.0645332 -24.6464481
  12.7187147 -33.9256439 -24.9137325  11.9290924 -35.0464897 -24.4411201
  42.6817970  17.6546860  23.8290958  42.4103928  18.2788258  23.0926056
  42.2492676  16.8661652  23.5989113   4.2463980  40.7835274   3.4064834
   4.4315128  41.0041161   4.3677645   5.0071731  40.2117271   3.2799244
  41.5799446  23.6310081  -4.3892136  41.2426987  24.2945442  -3.7578504
  42.4874382  23.5334949  -4.1426063  -2.6494191   3.2309835  34.6019325
  -3.5563743   3.2141485  34.2989998  -2.4489038   4.1175094  34.2098274
 -19.6847820  16.0481911  20.8532257 -19.9869423  16.4439030  21.6838112
 -19.9153175  16.6937275  20.2044678 -28.4859886   1.0472108  30.8797894
 -27.7119465   0.9887582  30.3142796 -28.1075344   1.0250925  31.8280926
   6.3215327 -40.5111275   5.4163461   6.8431916 -39.6406097   5.3664379
   7.0276098 -41.1641846   5.1780105  34.2022018 -10.0481939  11.1396561
  33.6355515 -10.4846334  11.8458672  33.5035591  -9.5608072  10.6735773
   6.5516844  14.0756674  17.3780746   7.2349362  13.6993675  18.0029869
   6.2988443  13.2571898  16.9509659  29.7930584  33.0068016  -7.8937731
  29.3259411  33.8470573  -8.1651745  30.7025318  33.2593346  -8.1435013
  21.2104378  10.5423927  16.4916630  21.2942181  11.1476755  17.3365688
  21.6558208   9.7374744  16.9214916 -22.7960072 -45.0191193 -14.2798643
 -21.9842701 -45.2316170 -13.7817917 -23.1017189 -44.2514229 -13.7504215
 -27.8070087  23.6765404  31.0885506 -27.9995270  22.7675762  30.6935825
 -28.6814728  23.9239426  31.3105106  42.9521217  11.4084244 -12.0122089
  43.0248909  11.7861443 -11.1151609  42.7369728  12.1696243 -12.5819139
  -7.7062840  19.9588566 -40.8677063  -8.0148678  20.8576279 -40.6242371
  -7.3418307  19.6869717 -40.0211639   8.0735846 -39.7032700 -17.6717663
   8.8656788 -40.3020134 -17.4135399   7.3606482 -40.2804947 -17.3552856
   6.0441098   8.1244259 -17.8889198   6.0984082   8.4309444 -16.9597054
   6.5925741   7.3131609 -17.8569107  16.7475338 -40.6169853  -1.9440954
  16.2038631 -40.1415138  -1.2333330  17.6443386 -40.2093773  -1.6980455
  34.5854568  -8.3058996  26.9157753  34.2841759  -9.2265491  26.9245033
  35.1705894  -8.3275318  26.1387558  29.7156429 -23.8928051  20.8243999
  29.4979553 -23.2364788  21.4789505  30.5683670 -23.5672760  20.4822960
   2.9972782  -5.0530705 -26.8760338   3.1013172  -5.3708639 -27.7952671
   2.7016633  -5.9252815 -26.4787312 -37.1221771  -9.1746693  -7.3726516
 -36.3768272  -9.0677366  -8.1091204 -36.5388336  -8.9515162  -6.6092834
 -21.2227516  10.4878979  46.8459015 -20.9698448   9.6944046  47.4337540
 -20.8530998  11.1662607  47.4745712  15.9471788 -39.7208710  -8.8668118
  16.6742783 -39.7932472  -9.5649090  15.6456194 -38.8430519  -8.9519892
  25.4895630  32.8874550  16.2725620  26.4121208  32.5924377  16.0069790
  25.0432739  31.9982834  16.1083946  -7.2418866  -1.6271220 -46.8816948
  -8.1055145  -2.0076277 -46.7886009  -7.1059546  -1.7872041 -47.8846474
 -42.5731010  20.2408829 -14.5611248 -42.3582115  19.4633865 -13.9489908
 -42.5371933  19.7685318 -15.3866072   2.2453504  -2.1267781  -8.9080667
   1.6076680  -1.4844511  -9.3184280   3.0138865  -1.8782462  -9.4574709
   6.6415110  45.0562248 -21.2558899   5.6989923  44.8021851 -21.2518616
   6.8186126  45.0949707 -20.2863979  34.8904610   1.0396253  -1.2110353
  34.5878830   0.3252541  -1.7284284  34.6542168   1.7588888  -1.7944044
 -23.1278706   4.1235766 -25.9222202 -23.6623688   4.6065831 -26.5383549
 -22.9559994   4.7245164 -25.1898060  17.6696720  33.7475357  -4.5431113
  17.7853374  34.5883942  -4.9678988  17.0543594  34.0384254  -3.7657008
 -17.6960964 -22.0514870 -18.9957333 -16.8118343 -21.5886078 -18.7799358
 -18.0278397 -22.0274220 -18.0520363  27.3627510  17.7081509  10.9169865
  26.7444344  17.2139435  11.4791775  27.1338081  18.6358509  11.1581106
  23.4114304   8.5156412  -5.2018805  23.2294197   8.1719360  -4.2926631
  22.4662876   8.6188612  -5.4964056  20.3268986  -5.0132203  12.7922897
  19.8959656  -4.7665448  11.9581108  19.7143650  -5.6459079  13.1685648
   5.2414627  29.9155579  -4.1546264   4.4221339  29.3249245  -4.0715427
   4.9972453  30.4104385  -4.9395127  -4.2801213  -9.7513647 -11.0348129
  -3.8215179  -9.0399904 -11.5433645  -4.8504786  -9.2546549 -10.4423437
  -4.8558340 -10.7614908  20.5913067  -4.5820656 -11.5673685  21.0274181
  -4.5794249 -10.1389713  21.3422699 -32.8870621 -39.4476318  -6.4137750
 -31.9280853 -39.3768082  -6.7011504 -33.1693840 -40.1986885  -6.9756799
 -41.4791222  -2.5945482  -1.3565797 -42.4210014  -2.3642151  -1.3213589
 -41.4494743  -3.1909208  -0.5552948  -1.9109820  30.3542175   6.0721769
  -1.6434493  31.3601532   6.0212264  -2.0543635  30.2607460   5.0940595
  -5.3736973 -44.1817360 -12.4321747  -5.5877237 -43.7156830 -11.5752573
  -5.2666769 -43.4745178 -12.9796057 -11.2923002  -1.0157259  24.6212482
 -11.8784847  -1.7664237  24.8055878 -11.0347099  -0.8824192  25.5390511
 -42.1195374  -5.0016775   9.5437326 -41.3945160  -4.3895216   9.6835537
 -41.8282013  -5.7776637  10.0926552 -15.4828691  -8.8001833 -35.7916222
 -15.4190502  -8.6355734 -36.7685890 -15.3911104  -7.9423618 -35.4221954
  29.7899265 -22.4357891 -17.8988018  29.3418217 -23.2743797 -18.2056618
  30.5238400 -22.9202251 -17.3688335   5.3497224  15.5982370  21.5170918
   4.6275983  15.0018663  21.2117424   6.1616883  15.0129604  21.4324284
  18.2969570  25.3146076  11.0494757  18.0352650  24.5487003  11.6556730
  19.2424145  25.2735138  11.1851301 -17.2335701 -13.2176828 -28.9436531
 -17.8808575 -13.7036772 -28.3983383 -16.9290829 -13.9565420 -29.5566902
 -37.9217567 -11.1976938 -24.3490353 -37.2140732 -10.5317020 -24.2833862
 -38.7397003 -10.6648235 -24.2936172 -35.1216125 -18.3791447  21.8397369
 -35.5087357 -18.9139671  22.5469990 -34.3288918 -17.9906769  22.3139248
 -33.4631348   9.9889441  10.0628242 -34.0467415  10.2675447  10.8782349
 -34.2824020   9.8330088   9.4593925 -28.9057388  26.7536697 -14.8523531
 -29.6890869  27.1331673 -14.4522295 -28.7004700  25.9863281 -14.3448057
 -20.6283913  -6.3033996 -36.9886360 -21.4415684  -6.9026031 -37.0345039
 -20.9942856  -5.5733614 -37.5904198 -20.5015202 -48.3634567   9.7251654
 -19.9324703 -49.1744919   9.8711300 -19.8394527 -47.7449417   9.3074121
   0.6043585  41.0998611  -5.8747053   1.4019032  41.0198326  -5.3206592
   0.5448547  40.2389183  -6.3484759 -26.3255024  -9.1179686  -2.8324552
 -27.2570000  -8.9391565  -2.7941244 -26.0047989  -8.3987389  -3.4433079
   1.0074967 -39.8120537 -18.9828358   1.1431270 -40.6643028 -18.5547390
   0.2949165 -39.9450264 -19.6582470 -16.4116707  33.8320503  21.9471531
 -15.4543533  33.6648903  21.9913464 -16.5970745  34.0060539  22.8765602
   2.5517902  28.2917099  -0.9572911   2.8797965  27.3985634  -0.9153335
   1.8462541  28.3414955  -0.3038155 -15.2916145  33.3867798   7.3271837
 -14.9409895  33.4174500   8.2550526 -15.6070366  32.4163933   7.3481102
 -39.4736977  -9.0751028  12.7237196 -40.3489990  -9.0157528  13.1066580
 -39.7558708  -9.0410452  11.7666616  -0.0307148 -26.4264164  -5.8906226
  -0.1730430 -25.6279297  -5.3266296  -0.8491616 -26.9183197  -5.5199995
 -28.7698593  -3.3446801  28.7157860 -28.0090961  -3.9465959  28.7584877
 -29.4732971  -3.9963269  29.0277824  -9.1543484 -41.2958984 -25.2164459
  -8.5761328 -40.6107788 -25.5058365  -9.9125862 -41.2779236 -25.7920818
  35.4225197  21.9359245  -7.6344280  34.4567223  21.8589382  -7.5595274
  35.5519981  21.6221657  -8.5578775  20.2222900  40.8813629 -13.4266214
  20.3902950  40.7093315 -12.4323196  19.5067215  40.1667252 -13.4994202
  -4.8253756 -28.6794930 -26.7825394  -4.6153803 -28.6868973 -27.7377777
  -5.1449518 -29.6055241 -26.6635094  24.0824604  16.8501606  29.1697006
  24.3745193  16.9873295  30.0859280  23.5264339  17.7039642  29.0728493
   3.5644920 -37.7504463   0.4006047   3.3745775 -38.4139862  -0.2778763
   2.6710341 -37.7138214   0.8552883   2.5873568 -18.5353203  36.8722992
   2.8893414 -18.9608650  36.0562935   1.9750768 -19.1953087  37.2063179
   5.8974147   2.9422824 -39.6750412   5.3985567   3.2643821 -40.4727783
   6.7586107   3.4668741 -39.8456955  36.0457420  -1.7846955 -12.3536119
  35.8771210  -2.6940811 -12.0623522  36.6102600  -1.9042912 -13.1384220
  14.8430882 -13.5343580  15.3144979  14.8261061 -14.4892035  15.2883234
  14.6546679 -13.3510799  14.3457575  31.4916592 -16.6688004  35.2265282
  31.5383339 -17.4732933  34.6173439  32.4217873 -16.4999561  35.4218903
 -28.8392715  22.3666630 -27.3660831 -29.7776051  22.2492428 -27.0042877
 -28.5620461  21.4122257 -27.2406693   6.6991239  36.9895668   3.9451344
   6.8611517  37.5117912   3.1087477   5.7559505  36.8448105   3.9354017
  -3.5925448  44.8747559 -23.9418335  -4.3314157  44.4477158 -23.4803658
  -4.0299115  45.7626381 -24.1478672 -41.5799026  14.1835184   5.9955521
 -41.3431778  15.1546822   5.9422231 -41.9150352  14.1155710   6.9493160
  -4.0439415  33.4893379  34.2193489  -3.4846525  33.0227737  33.5760918
  -3.6976552  34.4024010  34.1192284 -31.8736362   1.4681277  -7.9427257
 -32.8004646   1.7261064  -7.9558053 -31.5407219   1.8044285  -7.1106353
   7.9174848 -13.7665129  48.7059441   7.1873312 -13.7110519  48.1007423
   8.0501995 -12.7902298  48.8729553 -16.7979145 -12.3809566 -33.1870193
 -17.4347210 -12.5653276 -33.8496704 -15.9849300 -12.7807674 -33.6444054
  35.9935760  -4.2775707 -11.5009394  36.6534424  -4.5357008 -10.8199873
  35.1419716  -4.4911542 -11.0807600  -3.0365293 -12.6508722  34.4126778
  -3.6677761 -11.9064751  34.5381775  -3.2834163 -12.9263239  33.5073242
  27.8257484  17.1768761 -32.5493126  27.1070518  17.5468712 -33.0790405
  28.2323227  16.5593338 -33.2043877 -40.2188377  14.6508465 -29.4387665
 -40.1510010  14.4886608 -28.4621639 -41.0460701  14.1887341 -29.6556873
 -29.7556210  25.2000866 -12.6843882 -29.2835846  24.5684319 -12.0452604
 -30.1431313  25.8254738 -12.0171986 -18.9039021 -18.7688141 -17.0605316
 -19.2052555 -18.8111725 -17.9678364 -18.0186081 -18.4934998 -17.0750160
  -4.9774971  19.3008823  23.5937634  -5.8216271  19.7495193  23.8624878
  -5.0167499  18.5525646  24.2217197 -41.3728447 -29.8363838  -1.3946253
 -41.3707466 -29.1055145  -0.7691689 -42.0250587 -29.5009956  -2.0512559
 -32.9365883  15.3935537 -24.3719578 -33.3118782  16.2461586 -24.6622448
 -32.1055603  15.6071825 -23.9686985 -19.1008282   5.6399236  47.8653946
 -18.7639713   4.8123822  48.3245964 -19.8801708   5.1727910  47.4141045
  34.1598358 -23.0034695  18.1264820  33.5948181 -23.3493061  17.4371796
  34.9665260 -23.6361885  18.0468483  -2.2184267  23.7150688 -25.0876560
  -3.0276325  23.1754570 -25.2187996  -2.4952483  24.2671471 -24.3156509
   8.5696335 -41.3158493 -31.1174049   8.0467024 -41.6565208 -31.9135265
   8.9287834 -40.4771118 -31.4989300  39.7204437 -11.9559937 -10.7261953
  40.4145966 -12.5101852 -11.1195030  39.9135284 -12.2212124  -9.7528620
  15.9593649   0.0975688  33.9854050  16.0426350   0.0155831  33.0058327
  15.3358793   0.8969417  34.0431938  14.8677979 -28.4546700  -5.6189132
  15.7876310 -28.1977291  -5.3326230  14.3876877 -27.6711006  -5.2220621
  43.0847626 -23.6559868   9.9465475  43.8566017 -23.5104771  10.5373964
  43.3183823 -23.0584545   9.2084913  11.4644585   7.6123281  37.0850067
  11.7611685   8.3997040  36.5348206  11.1464729   8.0613556  37.8304100
 -22.9865551 -29.3794708 -19.3817482 -23.0296021 -30.3755989 -19.3193378
 -23.5234013 -29.2958641 -20.1956711   9.0618458 -34.5626335  16.6313038
   8.4183569 -35.1343765  16.2085629   8.8380623 -34.8397179  17.5766888
   5.7864013   8.1411171  19.8575649   4.9757071   8.0865755  19.2982922
   6.5250168   7.9135609  19.2228260  -5.2846622 -20.6546078 -20.3897629
  -5.0251603 -21.5595417 -20.4880295  -4.5652094 -20.2359905 -20.9366932
   3.8290138 -16.2308826  39.8746872   4.6494818 -16.7624569  39.8183022
   3.2305243 -16.9374352  40.0631523  22.1577072  -6.5877790 -42.5095596
  21.7183475  -7.4957118 -42.5540733  21.9248962  -6.2117548 -43.3643761
   4.6974053  20.8744526 -23.8025894   5.5514221  20.9881516 -23.2272491
   4.1753869  21.5098896 -23.3195667  35.4972267   5.3406558  29.4562225
  35.8022346   6.0504327  30.0702591  36.3728790   4.8648443  29.4040699
  18.2781601 -20.4263363   4.3381519  17.3046970 -20.4108486   4.4235620
  18.5755730 -20.5347767   5.2481723 -25.9810905  21.6023731  10.4892330
 -26.2224293  20.7043266  10.1722488 -26.0197124  21.5198193  11.4244671
 -19.4738426  36.3219337 -10.1886091 -18.9218235  36.0994492  -9.3914394
 -19.6555309  37.2937431 -10.0182943 -20.0844154   4.8923645  25.8232403
 -19.5641251   5.3413210  25.1403885 -20.7692032   5.5705342  25.9856377
   7.5100451 -21.4208126 -23.0034065   7.5046973 -20.5147762 -22.7577362
   7.6266837 -21.3518486 -23.9971447 -16.3804932  14.8679447 -46.3469086
 -16.1238632  14.7323637 -45.4441795 -17.0126743  14.1034336 -46.4477730
  -3.3972306 -10.6682081   3.2368739  -4.3224220 -10.9111986   3.5704272
  -3.4278429  -9.7479696   3.5607746 -32.5129852  -4.3332791 -22.7132931
 -32.3185883  -5.0621467 -22.0484886 -32.6567802  -3.6024303 -22.1188660
 -38.5403824 -19.5695343   1.4258614 -37.9754181 -18.8029842   1.5074030
 -38.8630638 -19.5533676   0.5572221 -24.1722488   8.0336599  10.9313812
 -24.8616524   7.3544903  10.6950760 -24.2655659   8.5688572  10.1536636
  10.3413601 -37.3535919  33.0000916  11.3004942 -37.2838326  32.9430580
  10.0401316 -36.5671539  32.5686188  -4.9820881 -17.3287392  -7.5390568
  -4.4844737 -16.5983582  -7.8502131  -5.2783794 -17.0391655  -6.6736183
 -18.3578892   3.9173477 -34.9622078 -17.3420219   3.8286090 -34.8950768
 -18.5970421   3.3507822 -34.2360687 -30.6167145  30.8899899 -25.4749737
 -30.0664997  31.6758156 -25.4441032 -31.3664513  31.0037060 -24.8934574
 -29.3639851  16.8537312  -5.2150416 -29.0109997  17.2589073  -4.3630567
 -30.0086994  16.2963467  -4.7981081  29.9546471 -30.0326538 -13.7793093
  29.7430344 -30.9532166 -13.4327660  30.8961906 -30.1758881 -13.9761162
  -9.4601345  18.7764988   5.7045383 -10.3185205  18.9070759   5.1806846
  -9.2664328  17.8557434   5.4907112 -11.3404808 -26.6251984  15.7086678
 -11.9941959 -27.3310337  15.6577301 -10.8322258 -26.9710445  16.4950123
 -23.2773438  10.4372282 -36.3471794 -22.6022968   9.8579721 -35.8639832
 -23.0852757  11.2811480 -35.8239899  -9.5770121  12.1144409 -45.4647331
  -9.4975529  11.5044794 -44.7406197  -8.9629602  11.7644653 -46.1236687
 -11.2286139  22.2101822 -28.3160915 -10.5468559  22.6324291 -28.8545876
 -10.5088654  21.6045036 -27.8667030  17.1364403 -34.8257217   2.9167871
  16.8123035 -34.1886063   3.5982561  16.4756680 -35.5530815   3.0154836
  41.2649155  -9.8296757  15.5343065  41.7330399 -10.2295933  16.3027782
  41.6121788  -8.9059296  15.5587778   6.7316914  -5.6253128 -17.2779064
   6.9028144  -4.7501101 -17.6051426   7.0999322  -5.6474123 -16.3613415
  26.5026875  10.9339705  27.3780193  26.2254562  11.8268566  27.7407436
  26.7767086  11.1699991  26.4990520  23.6849403   5.9676228 -12.3660355
  23.3090343   6.0650196 -11.4515133  22.8790665   5.9551797 -12.9059172
  -1.4681751  -4.6732669  45.6546288  -2.3548200  -4.2847848  45.6592560
  -1.2495791  -4.7878847  46.5919495 -42.2545052  18.9741306 -20.4208336
 -41.5788193  19.6237316 -20.6900120 -41.7892761  18.1480083 -20.2043152
   9.5711679  -6.8989658  44.8531952   9.5528116  -7.1163640  43.8826141
   8.7829857  -7.4354453  45.1275558  -6.5635486  38.5649986  15.1131954
  -7.1431236  38.4475174  14.3567801  -5.9191613  39.2549706  14.7771091
 -21.0753784   7.4983554 -26.2014141 -20.8759899   8.0930548 -26.9423084
 -20.5098362   7.9741683 -25.5147018   2.2650106 -37.4225540 -22.8322334
   2.1822424 -38.3870583 -22.7228451   1.6031803 -37.1228371 -22.1514454
  -9.8187046  -8.9553251 -37.7093277 -10.4874916  -8.9090366 -38.4072380
  -9.6427059  -8.0368996 -37.5100441  10.3783417  -1.7510632 -11.2738981
  10.5087080  -1.6988068 -10.3134184  10.5485077  -0.7723463 -11.4571133
 -41.3869019 -28.6799259   9.7236156 -41.9896431 -27.9168415   9.8505163
 -41.8868599 -29.2024250   9.0252600  10.4644718  -6.9024038  -0.4706000
  10.7623129  -7.6334019   0.0532760  11.3393869  -6.6697326  -0.9520071
  -4.7640133  18.5665760  12.5260553  -5.1503577  19.3970356  12.3049440
  -4.0745049  18.7716446  13.2216902  -5.1938944 -20.7893658  -2.7706351
  -4.8804154 -21.0176888  -1.9119747  -5.3067803 -19.8069229  -2.7271821
  19.5888176  36.4305229   9.9043102  19.7664795  35.5337105   9.5404997
  18.7281570  36.3295212  10.2414122  42.0721855  30.8381615   9.4013386
  42.1429443  30.9463997   8.4166698  42.5713501  30.0033112   9.4942207
 -13.2139273  -2.8413105  -8.0152845 -12.5249529  -2.8148050  -7.2778792
 -12.6088285  -3.0124850  -8.7443657  -4.1621227  11.8081741  -7.7723780
  -3.7339005  11.6548967  -8.6726084  -4.7024627  12.5935268  -7.9767494
 -33.7981033  13.0718756   7.9763737 -32.9523659  13.4284725   8.4271717
 -33.4186897  12.1562052   7.7548351 -19.8197727  23.3200588 -41.5818977
 -20.5680027  23.9481430 -41.8047295 -20.2939205  22.5882969 -41.2449532
 -26.7735043  19.1323490  35.0340767 -26.3341446  18.6424084  35.7558365
 -26.5194969  20.0647030  35.3274956  -2.9314284 -11.3357162   6.2716446
  -3.8680844 -11.1571426   6.5902095  -2.4279544 -10.9468193   7.0057349
  -9.9623613  11.3372107 -26.8191566  -9.8625298  11.0032578 -25.8938408
 -10.7213936  10.6896143 -27.0864925 -28.5161037  11.1942377 -36.8320312
 -28.3337536  11.9230623 -36.2648582 -28.9474239  10.5596085 -36.2259102
  29.4635372 -17.2901154 -10.0092878  29.1401081 -16.4400597  -9.7095451
  30.4257336 -17.2269821  -9.9930983 -44.4334183  11.3830128   0.7711390
 -43.4921570  11.5475435   0.7107106 -44.4000435  10.4936972   0.3890924
   1.4868584 -17.7746353  -1.9675779   1.5816976 -18.1273975  -1.0539910
   2.1766748 -18.3506680  -2.4357784  -9.4049625  -8.5901375  20.1487885
  -9.1308546  -8.5658035  21.1090927 -10.0891390  -7.9034863  20.1585121
  32.1897507  -1.8744087   0.5196090  33.1666222  -1.9851710   0.5169936
  31.9279766  -2.7275767   0.0837957   1.6173567 -15.5389156  30.2932472
   1.1352798 -14.9513140  30.9448929   0.8650163 -15.9301987  29.8003387
  -4.2533717  -2.4963810 -35.7279625  -4.7487936  -2.0961163 -36.5712395
  -4.1830363  -1.6788597 -35.2242432  41.9272919  29.1774273  -3.4086196
  40.9762917  29.2048588  -3.4143772  42.2267265  28.5996513  -4.0779510
 -18.3128395  18.6041851 -34.6766281 -18.3632641  18.5705185 -33.6847572
 -17.3860741  18.8978062 -34.7014160   4.0271096 -19.9623661  18.3420868
   3.6244035 -20.1596394  19.2102089   3.3091855 -20.2688656  17.7155342
 -26.1480541  -0.1047035  21.8558636 -25.2394829  -0.2019644  22.1920681
 -26.6230316  -0.4612002  22.6380177  13.4697361 -26.6864185  35.3980675
  13.3090734 -27.2762318  36.1075821  13.2503948 -27.2444077  34.5813980
  12.2923775 -23.7400379  30.7316990  12.6847343 -24.4467125  30.2362823
  13.0324755 -23.2601051  31.1282692  -7.5362229  14.3423271  20.2709904
  -6.8684211  14.1965733  19.5657310  -6.9165859  14.6009007  21.0032654
 -33.8410454  22.6576805   9.9158173 -34.4005508  23.0288525   9.1742287
 -33.7603035  23.5232162  10.4203463  41.8575516 -22.7595425   1.8191683
  42.0736847 -21.9653416   1.2445750  42.7004509 -23.2701473   1.6070850
   5.2711434  41.0729179 -18.0387974   5.0491681  40.1559143 -17.9542694
   4.6107650  41.3979797 -18.6958580   6.2909184 -15.6543789  29.2993660
   5.5465207 -16.2552090  29.3601112   6.1179452 -15.2075844  28.5130787
  27.5484810  32.2028008   5.0364385  28.4759178  32.3998871   4.8637495
  27.0910778  33.0123825   4.8689032 -23.0158653 -33.5725861  -0.7394936
 -23.9354076 -33.4906158  -0.4126475 -22.7020054 -32.6566010  -0.6311660
 -10.6206770 -34.7489967 -15.6334848  -9.9379005 -34.0476913 -15.6678448
 -10.7601900 -34.7786865 -14.6788635 -19.8899994  10.7931967 -30.6847801
 -19.0162277  11.0108042 -30.9504414 -20.4724998  11.4513559 -31.1681614
  -6.9982772   4.7944045 -27.9703445  -7.6250529   4.8670444 -28.7034569
  -6.6915636   5.6862245 -27.7414513 -23.2903271  17.6974697  -8.0392294
 -24.1203804  17.6879215  -7.5051632 -23.0085735  18.6215935  -7.9308944
   1.6803255  14.7586250   3.9795380   1.8022926  14.6134758   3.0168283
   2.6299577  15.0511274   4.1884665 -16.3100395   8.4975882  34.7966805
 -17.2491474   8.5257177  34.5061188 -15.8123369   8.3883820  33.9572563
 -21.5668430   8.5794630 -44.7356453 -21.3281975   8.7935419 -45.7264862
 -22.4610558   9.0070457 -44.7003555  22.2914886  22.2290764 -31.3999882
  22.4862957  21.3735466 -30.9530525  21.4878960  22.4973431 -30.8606796
 -14.7698259 -20.6592522  -1.5466568 -15.3593683 -19.8677902  -1.4464909
 -13.9368753 -20.1846752  -1.7075598 -16.6580906 -18.3625946  -7.6956139
 -16.5532684 -18.5838776  -6.7217131 -16.0447350 -19.0496902  -8.0437508
   7.8548141 -21.3977184 -25.8051357   8.3944006 -20.9183388 -26.4973030
   7.4937196 -22.1006393 -26.4197464 -41.6622620 -28.9103260   1.5201249
 -42.0394974 -28.0283127   1.5684952 -40.7166023 -28.6777191   1.8871343
   6.7741141 -15.1328087  -0.9311857   6.8707614 -16.0830154  -0.7232640
   6.1714950 -15.1915979  -1.6781917 -23.4695587   5.0024557  -2.4253840
 -23.2947655   4.5883865  -1.5335190 -24.4618530   4.9042163  -2.4797060
 -14.3742952   3.2597036  35.6746750 -13.5108194   3.6265323  35.3251648
 -14.0033693   2.8801196  36.5287933 -33.6247406  29.9091244  22.5344810
 -33.1089745  29.4457111  21.8249130 -34.3762779  30.2431736  22.0275269
 -35.0532646  10.9655161  18.9157867 -35.9174194  11.4890833  18.9967175
 -35.4100266  10.0973167  18.9081078 -12.8913488  11.0733070  32.7217751
 -12.8733845  10.4446297  33.4682350 -13.1929102  11.8851709  33.0978355
 -35.5387039 -14.7034073 -16.7231293 -35.7246208 -14.8370972 -17.6975670
 -36.3185692 -15.1623697 -16.3604603  18.4555721 -21.2309532  41.8826256
  18.4476624 -21.9702492  41.2443047  19.0430489 -20.5480423  41.4101639
   8.6177816   3.9002457 -24.7446613   8.5742340   4.6234298 -25.3944206
   9.0540476   4.4097228 -24.0369968  -2.3961461 -18.3664017  -7.8881402
  -2.0814068 -19.1280632  -8.3085070  -3.3358963 -18.3699551  -8.0553465
  34.5145721 -13.2820730  26.5833130  33.5518608 -13.5963163  26.4995613
  34.9714432 -14.1464863  26.4489441  37.9134140  23.8789310  21.7372494
  37.8736267  24.7002678  22.3035183  37.2964287  23.3471909  22.2095242
  -0.2467902   5.4950891   6.4321494  -1.1640389   5.8801093   6.6831775
  -0.3807606   4.6558528   6.9668818  23.6367226   0.4473855  44.0670815
  24.4578457   0.3766387  43.5136414  23.9674110   1.1099944  44.6964951
  -1.0470828   8.0271959 -42.8274193  -0.1612068   8.0947237 -43.2145538
  -0.8380424   8.0115395 -41.8698311  24.6038284   2.1225703  15.9868393
  24.1152668   1.3984501  16.3820724  23.9076347   2.7330477  15.7326965
  26.6292782 -14.3681841  23.8429394  26.7943840 -13.4538822  23.4134808
  27.3326950 -14.3373976  24.5298080   5.4101038 -22.7245541 -37.4376678
   6.2079000 -22.3377857 -37.7602654   4.6418247 -22.1855717 -37.7394753
  15.2147903  -6.4459801 -24.0833893  14.8460045  -6.8573823 -24.8666630
  15.4156790  -5.5361948 -24.4793701 -13.3061466  31.8642464  -4.2416835
 -12.3511400  32.0688858  -4.0778666 -13.2165108  31.6265259  -5.2323914
   5.2054272 -11.5006762  28.3430843   5.3825512 -10.5428562  28.3344555
   4.9546065 -11.6669245  29.2390671  -4.8081031  -0.0524089  -4.0160093
  -4.5406852   0.1872409  -4.8613701  -3.9482644  -0.3509489  -3.5808947
 -21.5841312   4.1834378  17.5265884 -20.6400280   4.2052541  17.4785576
 -21.7374268   3.7582502  16.6451797  -5.3367505  21.8441277 -21.5228863
  -5.8447008  22.4386711 -22.1870575  -6.0370970  21.2118549 -21.3201923
 -38.6690407   4.7683897  20.9880695 -37.8073235   4.8918324  20.5912304
 -39.1025772   5.6571879  20.7391491  28.1725311 -21.1477013 -23.9611492
  27.2928886 -21.5333691 -23.8056259  28.7518139 -21.7227535 -23.3941956
 -11.2785807 -11.6996365  19.3122177 -11.4794521 -10.9369316  19.9184380
 -10.3399715 -11.6329918  19.1915302  -6.8963656  37.4301567  20.8785248
  -6.4166532  36.5686226  20.7857189  -6.1706262  38.0049210  20.7099590
  16.0765762 -10.1103239 -33.7229958  16.9236488 -10.3108063 -34.1138840
  16.3551998  -9.3402309 -33.1608887  10.0440750 -27.7681561  12.2146873
  10.9413862 -27.4567528  12.5405102  10.0803976 -27.2823086  11.3661604
  -4.6650028  44.0683746  -0.2083005  -4.2499151  44.4831200   0.5379571
  -5.4022918  44.6317863  -0.5014947  29.6954708  41.0678673  -3.7553108
  29.0881691  40.4594154  -3.3628197  29.5406265  40.9900818  -4.7208738
  -3.8443234 -21.9765034   8.3188925  -4.0235415 -21.5311432   9.1564856
  -2.9061069 -21.6492100   8.1431684  -2.3254800  19.3836098 -18.2915192
  -2.9286299  18.6562729 -18.4894485  -2.7625220  20.1431255 -18.7283592
  27.7468796  19.0289078  28.9955978  27.8530827  18.4922199  29.7921333
  28.1819363  19.8775139  29.1986771  -8.0740166   8.0594521 -39.9060822
  -8.7128477   7.3401294 -39.8688889  -8.0277796   8.1469736 -40.9128647
  -0.2129108 -30.9546509  35.6131477  -1.1155413 -31.0469093  35.1959724
   0.0837801 -30.1268635  35.0750885  32.3664742 -31.3979053   8.5742235
  32.5501404 -32.1035309   7.9477296  32.5560722 -31.7803001   9.4322433
  16.5616417  -2.6760907  44.1273880  16.2023106  -3.5166931  43.7331200
  17.1379375  -3.0866704  44.8382530 -10.3292360 -21.5036869 -21.7474346
 -10.4040451 -22.2684021 -22.4051552 -10.3774433 -20.7536945 -22.2986794
  -1.0583375  -7.7895203  38.8385468  -0.6617617  -7.3771849  39.6651459
  -1.6527822  -7.1038241  38.5447350 -21.0429478   5.7578554 -21.2315006
 -21.6801567   6.1058640 -21.9178638 -20.3143330   5.4597549 -21.7959061
  11.3514872 -32.7581329   7.4495416  12.2371674 -33.0168304   7.7359581
  10.7733011 -33.5433540   7.6914659   9.9622688  32.3381920  16.0631962
  10.7764826  31.8612461  16.4153767  10.3714314  33.2305031  16.0671749
 -31.8257046 -10.6292791  20.6870289 -31.2301216  -9.8916187  21.0189438
 -31.7574654 -10.4142752  19.7089825  40.9362068   2.2226443  -5.3334899
  40.1670074   2.4366846  -4.7787790  40.5998421   2.3801677  -6.2377243
  31.5594540 -11.8994446  29.0519848  31.8125420 -10.9063959  29.1002655
  32.1446266 -12.1751566  29.8079967  -2.5247178  14.0669413 -19.2867908
  -3.4049327  14.3180046 -19.0578690  -2.2168756  14.9218969 -19.7179470
  14.5486135   5.3441505 -38.4796524  14.1179934   6.0228553 -39.0485229
  15.4574509   5.8088827 -38.3766937  19.0135651 -22.7932968   3.2779012
  19.9043274 -22.9108658   3.7527349  18.5634613 -22.0618763   3.6812212
  16.0410862  -0.3696439  31.3639984  15.5812521   0.0950171  30.6674175
  16.6152229  -0.9611027  30.9018402  -3.0459323 -23.2868252  -9.2740259
  -3.2925651 -22.4033794  -9.0148296  -3.3583291 -23.8361073  -8.4889221
 -19.5395069  19.4715290 -15.8152857 -19.1902237  19.9567204 -15.0252457
 -18.9560699  19.9309311 -16.5321274 -15.9334459  28.7718296 -31.6125717
 -15.5742521  28.1612358 -30.9133072 -16.0227146  28.0606270 -32.3385124
  17.0236301 -26.7442379   3.0419693  16.9986668 -25.7401009   2.8810837
  16.0934925 -26.8324566   3.3826127 -19.4492321 -11.2189455  11.2219687
 -19.0448513 -12.0087910  11.6509428 -18.8780613 -10.5177364  11.6101713
 -38.6145706  -8.4513578  -4.4493914 -39.2930794  -7.7574430  -4.5377378
 -38.3353615  -8.3745937  -3.5293953  21.2919903   5.1113367  34.2810287
  20.5380650   4.7911906  33.6614151  20.9772358   4.7381396  35.1483498
 -24.8814583  21.9402599  22.0795040 -24.1285782  21.8315716  22.6816273
 -25.5126781  21.3506851  22.4994030   9.0838261  32.9427834  22.7151165
   9.0867996  33.8806725  22.5747547   8.0741529  32.8078957  22.7890739
 -27.9271297  -2.4213169   4.9796910 -27.1246338  -1.8634735   5.2448087
 -28.5658932  -2.1424232   5.6695476  23.5321960 -29.6350708   6.0439944
  24.1879349 -30.2164440   6.4570937  22.7293568 -29.8046646   6.5668640
 -36.0068855  27.4185772   3.0964751 -36.3782921  27.2981129   2.1397429
 -35.0770645  27.7359676   2.8888917 -12.5797968 -40.5179291 -13.8467216
 -12.1161451 -41.2230873 -14.3638458 -12.8567753 -41.0078430 -13.0366735
  -6.4598608   7.7446194 -51.2016983  -6.1245699   8.2759390 -52.0167656
  -5.5461130   7.4411778 -50.8823776  -4.5907054 -31.4287663   9.9716520
  -4.8448772 -30.6805019   9.3485250  -3.6462784 -31.2336388   9.9881840
 -25.6977444  24.5677395  21.2957306 -25.5097694  23.6515293  21.5488529
 -24.8386211  24.9871178  21.6026154  20.3962612  20.4718113 -27.7570972
  19.4239521  20.3031254 -27.5464687  20.6010532  20.9309635 -26.9361038
 -14.9160891 -29.5340710   6.3227854 -14.4458103 -29.7478275   5.5180469
 -14.5322390 -30.1665707   6.9585161 -33.2296104 -24.6994171  -9.6848326
 -32.5536957 -24.0027370  -9.9387932 -33.4333572 -25.0179920 -10.5766897
   6.0273004 -35.9140625   8.6676750   6.1624117 -36.1643257   9.6057348
   5.2810035 -35.2493172   8.7887669 -11.9447498  -3.2774518  41.0826263
 -11.8951206  -2.8352635  41.9627914 -12.1682787  -4.1851916  41.3878365
  14.5902796 -37.5155334 -30.6364346  13.7752094 -37.9906387 -30.8728333
  15.2824688 -37.9828644 -31.1622066  -7.3137655  22.1676311 -11.4889393
  -7.8406162  21.6312351 -12.0697498  -7.8993301  22.2898941 -10.7674284
  24.0241146   2.4286149  39.4824333  24.5476608   1.7808363  38.9105568
  23.7237396   3.0197806  38.7110825   0.3904728 -12.7517948   0.3208059
   1.2110513 -12.6819696   0.8528233  -0.2550284 -12.8733234   1.0093144
 -34.3991318   3.7284555   8.8058176 -35.1921844   3.2073607   8.6074820
 -34.8192558   4.5798683   9.1015692 -24.9928894  13.5251150  32.0960197
 -25.0625401  14.5185843  32.0592384 -25.9518299  13.3267736  32.2374992
 -35.2645721  24.1109867   7.8207822 -35.3146477  24.9749641   7.4049706
 -36.0855865  24.1174927   8.3396711   1.5293702  -8.5308390  -4.6878929
   0.9387573  -8.6028357  -5.4764404   2.3978536  -8.4279699  -5.0891271
  28.6716156   0.0974424 -31.5855331  28.1256618  -0.1620805 -32.3477440
  29.3184681  -0.6960660 -31.5818577 -26.7902241  -8.1968479   1.7197502
 -26.8661804  -7.3278694   2.2015116 -26.7717609  -7.8578911   0.7986843
 -39.9453812 -22.9137173  -1.1312071 -39.6137543 -22.1139774  -0.6962614
 -40.2238655 -22.6732635  -2.0121205 -17.7511158  24.0746250 -21.6527786
 -18.2129688  24.2108479 -22.5277729 -18.0742702  24.8556175 -21.1025620
 -20.7129154   3.4495778 -11.9479818 -21.3051128   4.0734701 -11.5513153
 -20.4625607   3.9377151 -12.7983036 -37.7809715 -35.2942963 -17.8022175
 -37.0744171 -34.7986870 -17.3540440 -38.5510635 -34.7938271 -17.4826431
  10.5244579 -34.4764977 -28.2337456  10.7266598 -35.0900726 -29.0223045
  11.2352066 -33.8079071 -28.3952045  -2.7380073 -42.0478172  19.8147888
  -1.8161970 -42.0822601  20.2639503  -2.6641502 -41.1790085  19.5130444
  30.4577999  33.3619194   2.1558912  30.0309772  32.5064812   1.8422985
  30.2964630  33.9295273   1.3471841  32.7941742 -32.5343170   1.4852257
  31.8390026 -32.4271355   1.4731143  33.1790390 -31.6600399   1.4115105
  -0.6404154 -11.5255404  33.1295166  -0.5428001 -12.4633541  33.3786163
  -1.4016242 -11.2493334  33.7086182  17.9722099  25.0681515  29.7985382
  18.0658607  25.1925964  28.8250408  17.7581291  25.9498711  30.0836411
  30.5096951  10.8760500  17.9458981  30.6420517  10.5923061  18.8707409
  29.9310608  11.6440544  18.0737820 -40.3898926  -9.9529667  -0.4780304
 -40.0461769  -9.1777000  -0.9560285 -41.1599503  -9.4434261  -0.0411153
 -24.0376644  -5.8540177  18.4167957 -24.4040413  -5.1324592  19.0071449
 -24.0866680  -5.3979788  17.5713596   9.7848568  49.3425522  13.2060347
   9.2781897  49.9560776  13.7707596   9.2750311  49.5690689  12.3310442
 -12.1110525 -42.6410065  17.7478542 -12.4723043 -43.4486046  17.9898109
 -11.2742138 -42.6526833  18.1818466 -18.9060059  21.4455700 -43.5230446
 -19.2909470  21.7824268 -42.6999359 -18.5012550  22.1964531 -43.9608994
  14.3276682 -14.2298479  25.1914883  13.8175802 -14.5164576  24.3884315
  15.1592655 -14.0078411  24.8358860 -14.9899244  21.4053555 -37.7008362
 -15.3045454  21.5839310 -38.6688309 -14.9411297  22.3427334 -37.4536171
  -6.4395199 -33.1601486   8.7823849  -5.7392383 -32.7123871   9.2320547
  -5.8838992 -33.5718155   8.0606480 -11.5998087  14.1375160 -13.5812454
 -10.9488688  14.8213501 -13.2109594 -11.3769245  13.4128895 -12.9501743
  15.7142458 -15.8331995  28.5550938  16.5337582 -15.3803692  28.8375511
  15.5289803 -16.3158283  29.4373627  22.7322578  -5.4171348  38.3745651
  21.7638226  -5.2482300  38.7276993  22.4404583  -5.9387178  37.5711479
  10.4730167 -21.3630486 -37.7846832  11.3250160 -21.6959686 -37.4381752
  10.0695019 -20.9982471 -36.9402084  25.3391590  26.6217060  -8.5675945
  25.0665474  27.5228214  -8.5282536  24.5693455  26.1979103  -8.1065073
 -24.8276787  30.2870770 -21.5610714 -24.1950321  30.6538792 -22.2198448
 -25.7179031  30.5595951 -21.9134083 -29.2384892 -33.9897766   5.2731299
 -29.4366856 -33.1805000   5.8135262 -29.1788349 -34.6336098   6.0340943
  30.3646717  10.7813425  -3.9300120  30.0382214  11.5767784  -4.4356322
  29.6640549  10.1825571  -4.3122520 -24.3656235  30.3514957  24.8137569
 -25.1969013  30.5873222  25.2971230 -24.7601547  29.9537582  24.0119209
  -0.0736450 -13.1451092 -23.3874493   0.3492799 -14.0121164 -23.5718021
   0.6479344 -12.5380478 -23.3191395 -11.6579456 -41.4267616  -0.9182270
 -10.9733295 -41.7706566  -0.3146166 -11.9691477 -42.2712288  -1.2859890
  16.9715691  50.0855598  14.2659750  16.6954403  51.0028458  14.4073925
  16.2141647  49.5729027  14.4926901 -11.8215466   2.4188356  11.2174759
 -10.9734612   2.6943116  11.5796556 -12.3179703   3.2989004  11.3692999
 -36.7267380  11.3572607   6.8841753 -37.0318451  11.9954453   7.5428634
 -37.5659447  11.0204182   6.5017776  -5.6833797   0.6722755 -15.3651533
  -5.0903511   0.1208880 -15.9009914  -5.4471679   1.5880089 -15.6647358
  34.3915062  -7.0838895   2.8252332  34.8301010  -6.2109156   2.4906664
  33.6414528  -6.6131325   3.3017123  -9.6022511 -45.9266396  19.8814583
  -8.8798037 -46.3090439  20.4100628 -10.3813467 -46.3207855  20.2937717
  15.2192383 -23.1749649  32.2545891  14.7046986 -23.6586952  32.8928795
  15.9197397 -22.7560406  32.8101959 -21.5384483 -44.0024414  13.6459846
 -22.1730118 -44.7582283  13.5613766 -20.7133141 -44.4874268  13.5490313
 -25.1622849  -1.9173844  11.8944168 -25.9936562  -2.2422245  12.1913900
 -25.2087708  -1.0013072  12.1443520  16.3404083 -16.8377419  46.1174622
  17.2035599 -16.6365585  46.4836388  16.4810219 -16.8683834  45.1588402
  -8.3133116  10.5855722  29.0467300  -8.5829830  11.4472322  28.7112656
  -9.1218090  10.1233320  28.9839001  20.8082771 -16.5426331  -1.8211939
  21.1444817 -15.7501621  -2.3162582  21.4718895 -17.1996078  -2.0621364
  16.6635437  42.0730019  -0.1014726  16.3874874  41.1195145  -0.0040658
  17.5623894  41.9459229   0.2718860   8.5728474  10.9215460  35.7731895
   8.0157175  10.4659834  35.1267815   8.2462597  10.5494165  36.6112900
  -8.1261168   0.9351525   3.0925174  -8.4842930   1.8520570   2.9755466
  -8.1777735   0.8952458   4.0828347 -11.0565853 -30.9742222 -17.8659573
 -10.1034145 -30.8348980 -17.7100449 -11.0050888 -31.7811012 -18.4627762
 -37.7164917 -14.6950016  -7.6664624 -38.3768845 -15.3774519  -7.3089118
 -37.5718689 -14.1800585  -6.8531246  11.8846722 -22.8364773  39.9196014
  12.5997925 -23.1596222  39.3748627  11.1452284 -22.8275166  39.3584862
  24.0061703 -25.6773052  24.2970333  23.4417343 -26.4536991  24.4126186
  24.8436852 -25.9662685  24.7216320 -23.1935616  32.0877457  23.1731968
 -23.2875881  31.3596992  23.8520622 -23.5871105  31.5690212  22.3978329
 -13.3639231   4.8605614  22.9735088 -13.9054976   4.5994015  22.2207661
 -12.6641359   4.2224417  22.9603539 -39.3447762  -0.8335527  33.8131294
 -39.3672409  -0.9569759  32.8483543 -39.0713730   0.1102256  33.9253159
  25.6593304  15.2932978  -2.0492041  26.0367355  15.3708487  -2.9113486
  25.2533875  14.4519653  -1.9647621  -7.5735002  22.0383072   9.5004768
  -7.6748176  22.8379498  10.0432415  -6.6696105  22.1685581   9.0921078
   3.9176540  25.2648392 -21.6327114   3.4958923  26.1680508 -21.2862549
   4.7279530  25.6891022 -21.9754677  29.5530510  21.3207302  29.4090347
  30.4860001  21.0793343  29.7287006  29.3390636  21.9979916  30.1100063
   5.0831289 -17.2181244 -11.6758938   5.4057980 -17.1892529 -12.5773182
   5.5905471 -17.9672432 -11.3204556   2.3152101 -16.6448231  22.8295918
   1.4876703 -17.2540531  22.9901752   2.3898683 -16.3422661  23.7509022
 -29.0823345 -11.7646198 -25.0741920 -28.2201557 -11.6307669 -25.4558563
 -29.6526508 -11.8950033 -25.8162174 -25.3041477  31.3455715  28.4941769
 -25.4745674  31.0612049  27.6104927 -25.5924568  32.3175087  28.2979927
 -11.7775354   2.5656717 -50.2165909 -12.7193899   2.8134954 -50.1180077
 -11.9974232   1.6133330 -50.3978539 -39.7436638  12.4922047  14.7666941
 -39.5256844  12.9843445  15.5613670 -40.4426270  12.9497910  14.3963394
  27.1568336   5.9310226  -0.4765926  27.3066483   6.7472124  -0.9879941
  26.4744720   5.4646602  -1.0245068  41.3673401   6.1819859 -25.8052063
  41.4793549   5.2850575 -25.5967216  40.9729424   6.4944334 -24.9060917
   8.0745153 -41.9288597 -24.4225082   8.7973318 -42.3245697 -24.9203701
   7.3222671 -42.1253891 -25.0484505 -19.8667984  12.2762022  17.6524048
 -20.0019016  12.7691612  18.4997139 -19.1153679  11.7200499  17.9034042
  26.9021416  -6.8359461  22.6296196  27.0811977  -7.6003671  23.2591381
  27.3686295  -6.1343536  23.2059364  36.6691513 -32.9402924   9.5034199
  36.0651855 -32.6257362  10.2031145  36.1604156 -33.7150803   9.1878405
  -4.6397667 -12.1126289 -37.6826477  -5.2841830 -11.7965307 -37.0181427
  -5.2149415 -12.7524223 -38.1988564 -19.3944530   9.8696795  38.1162605
 -19.7270851   9.0988874  37.6985092 -18.4640808   9.8153744  37.7551537
 -20.6007881 -25.1578178   5.4888406 -21.3099346 -24.4830799   5.6226726
 -19.8203907 -24.4965572   5.6656828  -1.4673804  32.6167717   2.7003040
  -1.0543439  32.5901833   1.8059545  -1.3201159  33.5368195   2.9225671
 -22.2089596  12.2041302  43.7689095 -22.2760010  12.8110199  43.0554543
 -21.2371655  12.3377743  44.0217323 -23.5551338 -27.6940880  -7.2955174
 -22.9494133 -27.2360554  -6.6700282 -23.5166492 -28.6035042  -6.9906678
 -26.4622803  22.5381508 -25.5989208 -27.3094292  22.4081650 -26.0060940
 -26.7244511  22.7820377 -24.6607132  14.7447701 -11.1235237   2.9725895
  13.9388762 -11.6771803   2.9885218  14.4276886 -10.3454876   2.5769238
  -9.5860996  -5.8806911 -13.5199680  -9.8630133  -4.9318600 -13.6398468
 -10.3361921  -6.2360005 -13.0192432 -30.6384640 -12.3911524   0.2787870
 -29.9745636 -13.0453463   0.0082671 -31.3828182 -12.5413561  -0.3437916
 -19.5602665 -22.0324726 -32.5520592 -18.5664787 -22.2014923 -32.3506393
 -19.3855095 -21.3628635 -33.2243233  18.0327339 -26.5156975  17.7782555
  18.0604382 -25.7752342  18.4823055  17.0652790 -26.3538609  17.5031319
  -6.5536962 -12.3688507  25.5396767  -7.1205950 -12.4147520  24.7511539
  -7.1093588 -12.8779974  26.1482735  -4.3601203 -29.7290573 -12.5888243
  -4.4896302 -29.1331463 -11.8131104  -3.4280050 -29.7474346 -12.7145119
  24.0471478 -13.7846308  13.0449839  24.2339001 -12.7889738  13.2713890
  23.3152771 -13.9363947  13.7051535  31.3228130  -2.9496272  32.8084755
  31.1350060  -3.9133253  32.6006012  32.2761421  -2.9555840  32.7948914
   7.0872245  -9.9539833  33.3322334   6.6111045 -10.5440006  33.9575005
   6.3013892  -9.6211729  32.7896729 -15.6308975 -38.6295929  -7.8595214
 -15.9761505 -37.8190079  -8.3065739 -16.4059582 -39.2410851  -7.9569597
   1.8912662  -8.1667871  30.0522938   1.6230681  -9.0010595  29.5732365
   1.3699204  -8.3875551  30.8916016  -4.9224205 -11.9639664 -12.6947527
  -4.4974275 -11.1487617 -12.4171391  -4.7749777 -11.8922510 -13.6601887
  32.4031067  16.9802494  30.6413116  31.9664097  17.5510216  29.9571037
  33.1084976  17.6202946  30.9411659  24.8223629  -9.0476131  42.9655952
  24.5241547  -9.9862432  42.8929482  24.1757603  -8.6026888  42.3361206
  13.2014856  30.5683613 -23.1497135  13.1006985  29.6342983 -23.5963173
  13.9261837  30.8960705 -23.7430153  -5.3972840  16.0845127  38.4360847
  -4.5644116  15.6477089  38.1992989  -5.1749473  17.0171947  38.2045555
 -36.0950356  14.7324667 -23.5150967 -35.7279282  15.1714010 -24.2722187
 -36.0512085  13.7796307 -23.7793427  17.0960903 -35.2489929  12.7658882
  17.7620487 -35.4941444  12.0830498  17.7191277 -35.2454262  13.5422544
  21.5803719 -20.8009815  17.6835060  22.2651882 -20.7464142  17.0727825
  21.2783337 -21.7207069  17.7087975 -21.2208996 -14.6040001  33.3599052
 -21.7618828 -13.8012533  33.6466522 -21.7435398 -15.3382368  33.7862930
  -5.1862826  -3.6323488 -42.4647903  -6.0859642  -4.0643907 -42.4896812
  -5.4523520  -2.7014148 -42.2737198  12.8940115  -6.1149511   7.6542792
  12.7409105  -5.1921039   7.3124747  12.8067684  -6.6034050   6.8294377
  31.6163807 -24.8516827  32.3895645  31.0726433 -25.7119694  32.1766129
  30.8346920 -24.2455349  32.4549561  22.5005741   2.9916000 -22.1869392
  21.9670963   2.9494588 -21.3957367  21.8982716   3.0371530 -22.8884544
 -36.5922508 -36.3015442   6.6761599 -36.6064301 -35.7630272   7.4828315
 -37.5972557 -36.3996773   6.5826764   5.5681634 -37.6831856  13.6123695
   4.6327152 -37.8749619  13.3075638   5.6007400 -36.7259560  13.4087467
  20.2719212  24.2568970 -19.7094784  20.3913021  24.3829365 -18.7195282
  20.8149071  23.4609318 -19.8527336 -26.0293770  -5.7907557 -10.8789902
 -27.0023689  -5.8945718 -11.0203590 -25.7821903  -6.5729537 -11.4258070
  12.3728199  27.9443283 -24.4144993  12.9022045  27.3741570 -24.9447556
  11.8491936  27.2551422 -23.8628521  -0.5632573   8.5953131 -39.4392700
  -0.4299380   9.1764355 -38.6298637  -0.0962393   9.1597004 -40.0688858
 -18.5948429 -48.8381081   0.4513825 -17.6189270 -48.7576866   0.4719747
 -18.7222347 -49.0176239   1.4090074  -7.8771639 -19.1422100 -30.8938103
  -7.0937171 -19.6792068 -30.9305439  -7.5266051 -18.3429680 -30.4089451
  -5.6781068  14.4191532  18.3455162  -5.3092394  13.7860641  17.7230396
  -5.8811440  15.1525650  17.7454033  -9.2716875 -24.8887901  28.4227505
  -9.8673239 -24.3018208  28.0213890  -9.7592497 -25.6925793  28.5702286
   0.9757413  18.0503845 -16.2521000   0.6338877  18.1545620 -15.3194017
   0.1502147  18.5319977 -16.6787701  -7.2225614 -16.0369816  38.7332878
  -7.7186713 -16.7196789  38.2515221  -7.4942150 -16.2313595  39.6720352
  18.7816525 -22.7428761  29.7127647  18.1087608 -22.2821083  29.2662849
  18.4923992 -22.9409676  30.6034927 -23.5529861 -15.6776743  -6.9366426
 -23.0083408 -16.3758087  -7.3071103 -23.5095253 -15.0252876  -7.7129006
   5.1804523   1.6638880  30.7695179   4.8899708   0.7734287  31.0978012
   5.5780277   2.0097873  31.5350666  13.7274075 -13.1864233 -43.5730400
  13.0541220 -12.5343904 -43.2335739  13.7280302 -13.8231497 -42.8087196
  12.9846563   2.8588557 -36.2467728  13.4464283   3.6965246 -35.9207611
  12.1739664   2.8170807 -35.7472038 -39.7519379  20.8045254  23.3780193
 -39.2755127  19.9502392  23.4083405 -40.3812637  20.6991615  24.1662350
  18.0808315 -36.5267601  26.3536720  17.8407516 -36.5712852  27.3178520
  17.2242451 -36.3912239  25.9581146  22.9885635 -20.3888664 -15.7030220
  22.6015453 -20.6529083 -16.5388508  22.2409801 -20.3398495 -15.1207428
 -22.7153034 -17.3205910 -33.0271721 -21.8715916 -16.8716640 -32.7482376
 -22.5331326 -18.2210464 -32.7687454  21.8842869  -6.6775341  36.1109276
  22.1910820  -6.9324512  35.2134819  21.2884827  -7.4208245  36.3029709
  -5.0276527  42.9333763 -22.7986679  -4.4895468  42.5091667 -23.4804573
  -5.0718246  42.1411743 -22.1787033  12.1851015 -20.5331650  30.4835491
  11.2725143 -20.8037548  30.2846603  12.1013098 -20.1146812  31.3171844
   7.1089396  25.3537025  -7.7867703   7.7078905  25.8060646  -7.1387782
   7.4187689  24.4360561  -7.7161140  -7.4524708 -30.4283237  14.2035313
  -7.1295676 -30.7916470  15.0472565  -6.6311507 -30.3065853  13.7261515
 -20.8894291  21.9722481 -27.0229797 -20.0343571  21.4683762 -27.1226768
 -20.5313663  22.8218098 -26.6293564  31.3328514   6.7188215 -26.0409451
  30.7537956   6.0585518 -26.4930973  31.5633850   7.2069883 -26.8286343
 -18.0621510  15.0887203  30.5445175 -18.7887897  15.3874960  29.9558563
 -18.0905647  15.7685232  31.2854404  17.7076130 -14.0067663  -8.8418474
  17.6621609 -13.1787958  -8.3703403  16.9515095 -14.4861450  -8.5461617
 -21.7437210 -40.8767509  17.5841007 -21.2730541 -40.9983788  16.7544651
 -22.0986614 -41.7969589  17.6477451  40.4077721  32.1573906  -9.5287008
  40.7829628  32.1057587 -10.4214935  41.1275635  32.7690926  -9.1114473
  28.6585598  26.6534977  -9.5100384  27.8460960  26.1316624  -9.7351866
  28.4896736  27.4629955  -9.9801092   4.2854352   4.3746505  36.6907463
   4.0753856   4.3374763  37.6975327   5.1236749   3.8439608  36.6857071
   3.2232797 -30.1778431  16.5237236   3.7985747 -29.5991859  17.0761642
   2.9443603 -30.8015728  17.1868095 -28.3030701  33.3684311   3.9816988
 -28.8100929  33.8789635   4.7001753 -27.7972298  34.1233406   3.5607648
  -2.8470292 -46.8517075  17.9874439  -2.2336285 -46.7410736  18.7479134
  -3.3117592 -45.9838371  18.0195942 -41.0070534 -14.2462502 -23.6842461
 -41.0802879 -15.1836166 -23.4936810 -40.2782021 -14.2273970 -24.3324070
  19.2693596 -35.1411209   0.9257892  18.5450573 -35.2842255   1.5839860
  20.0167828 -35.1577530   1.5908040   0.9757681 -22.6202888 -32.3456879
   0.3046295 -23.0678062 -32.7985229   0.6394775 -22.6338406 -31.3790894
   0.7904723   6.0247650 -44.9924469   1.2463530   6.4618201 -44.2513618
   0.9890667   6.6778040 -45.7145691 -36.0384254  20.0986156  21.1589928
 -35.8167305  19.2618504  21.6025047 -35.3091927  20.7373638  21.4347591
  13.4355278   7.6962481   7.6500134  13.6482763   6.7568140   7.8579812
  13.0718565   8.0283203   8.5081415 -24.8447762 -10.9486599 -14.4254189
 -24.5812874 -11.9018974 -14.6015625 -24.8415260 -10.9802380 -13.4175730
 -43.0950203   3.0735414 -25.3757820 -43.3163605   2.9626341 -24.3756542
 -42.2701797   2.4689174 -25.3290939  21.9475460   1.4721881  42.6034966
  22.5959988   1.1724466  43.2980537  21.2601204   1.7399499  43.2079353
 -21.2951183  21.4997711  27.1724033 -21.1177464  22.3394547  26.6992435
 -21.9801102  21.8511600  27.8119068  -1.0329981  32.9835815  -4.7395697
  -0.6418230  33.8647385  -5.0159745  -0.2172013  32.5472565  -4.4173427
  21.8808899 -13.2342043  36.4361649  22.2589092 -12.3645048  36.1608734
  22.6867218 -13.7581072  36.6327667  12.8610191  -2.1236153  -2.4414632
  13.1335535  -3.0165796  -2.3151073  13.5241919  -1.8047205  -3.0707750
  42.5932312  12.2332716 -25.1595688  42.6279640  11.6082077 -24.3792610
  43.3225365  11.7768679 -25.6493187 -25.3252029  -8.1371260 -11.9396410
 -25.3628254  -9.1334610 -12.1984081 -24.5507507  -8.2484875 -11.3405657
 -17.3654099  15.4648428  15.5029793 -17.6679497  14.6816053  14.9414759
 -16.4070358  15.4284534  15.2976608  26.7866669   2.6865952 -30.7089615
  25.9491348   2.1183114 -30.6184120  27.3977585   2.0360885 -31.0541573
  -8.0935392  31.8963318  -1.1084447  -7.3577361  31.2960873  -1.3816757
  -7.7017846  32.7410851  -1.3535281  11.6502180  29.1024323  21.6881695
  11.3976202  28.7754459  22.5689793  11.7619896  30.0291386  21.7984467
 -37.3179779  -6.5743012  -5.9857655 -37.6976509  -5.9988518  -5.2514896
 -37.6969223  -7.4447451  -5.7093678  36.1919746 -19.0445023   3.6410236
  36.2577934 -20.0407448   3.7306049  36.8105011 -19.0214539   2.8612788
 -31.7418480   2.3621249 -26.3585701 -32.1841125   2.8032250 -25.5876141
 -32.4107170   2.4076793 -27.0564518  32.2224579  -8.1311121 -22.5926399
  32.9320030  -8.4599495 -22.0303936  32.4482841  -7.1930504 -22.7070827
   0.2083092  -2.3052423 -49.9045258  -0.7881478  -2.4143445 -50.0036430
   0.2525873  -2.0682974 -48.9277802 -11.2876072  26.1593742 -14.7309093
 -11.4095325  26.3359947 -15.7171106 -10.5429020  26.7066059 -14.5266428
 -27.7904224  17.5557194  -2.6503043 -27.1477776  16.8716202  -2.9690735
 -27.1547585  18.1049156  -2.1288698  32.1133652 -33.7672043  25.8312569
  31.7910347 -32.8522835  25.7727127  31.6557407 -34.0762939  26.6453056
  -4.1913629   6.5786052 -50.2476921  -4.7390561   5.7926812 -50.0176048
  -3.6346102   6.5842032 -49.4554214   9.3130207  -1.7471042   6.3110600
   8.3466187  -1.9468269   6.1604443   9.6473484  -1.7815489   5.3838830
  28.8889580  27.7268238   1.1738176  29.8433132  28.0064869   0.8878919
  28.7408409  26.9694920   0.5390494  30.8571129  40.4488373  -7.7240605
  30.3093948  39.9589844  -8.3430557  31.5079632  39.7328415  -7.4724164
 -37.1662254  24.8500328 -15.4336042 -36.2640266  24.5381737 -15.1743488
 -37.1434135  25.7651577 -15.1392822  39.7495155   3.0928020  -7.5019560
  39.2931213   3.9493055  -7.1759191  39.0030174   2.7849441  -8.0837641
  30.7328911 -30.8374233  -6.2858009  31.4501648 -30.1763363  -6.3878417
  31.0643291 -31.4500465  -7.0222569 -33.9968605  23.1900120  19.4571037
 -34.0350266  23.0817242  20.4133034 -34.5704689  23.9314137  19.3017044
  36.7618980  34.4176788  11.6979914  35.8823814  34.8476143  11.5134392
  37.3483925  35.1475258  11.4144945 -18.6447506 -15.4123001  36.2735519
 -19.0574512 -14.5765085  35.9941826 -19.0937691 -16.0630608  35.7226639
  23.8636417  -9.0179853 -33.6864586  23.0135422  -8.6919479 -33.3832550
  23.8661118  -9.8695879 -33.1518135 -29.9663200  31.2667027  22.5158081
 -30.6223812  31.9745121  22.5828972 -29.4942970  31.4740524  23.3721466
  30.9893494   3.5526586 -28.7296867  31.4191971   3.0019045 -28.0272255
  30.6593227   2.8392537 -29.3192749 -32.9034309   2.2350714 -15.9538994
 -32.2446632   2.8352010 -15.5867863 -33.3720970   1.9051626 -15.1124287
 -10.8359098  12.9462681  -1.4073623 -10.3544474  13.6268482  -1.9517097
 -10.2247839  12.1866932  -1.5811489  42.1474762  10.3596735   5.2697301
  42.0839081  11.2984285   4.9239388  41.2742844  10.4109335   5.7212567
  20.1895294 -29.5203857  37.3287582  20.7387962 -30.2442265  36.8358536
  20.8945599 -29.3409901  38.0665054  22.6653481  37.5373573  -1.2141389
  23.6028423  37.7913933  -1.1455853  22.6909313  36.6533813  -0.7933745
 -17.2541237  11.9958267  23.7533607 -17.1554451  11.2883253  23.0018711
 -17.0192699  12.7596998  23.2778454 -11.3404169  21.4573345 -43.4423943
 -11.2974291  21.3448486 -44.3733864 -10.4490471  21.7871780 -43.1682014
   9.3578749 -15.9452343 -22.3769550   9.6411467 -15.3587008 -21.6673355
   8.5561075 -15.4964352 -22.7135239 -18.5329094  31.7994499 -24.1059170
 -19.2527618  32.5047150 -23.9531231 -19.0421009  31.0660667 -24.4089603
  28.3766918  35.3538170 -19.5001545  29.2487926  34.9677582 -19.7005234
  28.2735119  35.9576454 -20.2820854  31.9262314  21.9406700 -28.3711052
  32.1592140  20.9732571 -28.5740757  32.4250298  22.3555279 -29.0815182
 -23.2346668  20.0748653 -10.2741079 -22.8523788  21.0105286 -10.0213661
 -22.7093506  19.9670143 -11.0952206 -12.6145639 -28.1172409 -20.6772957
 -13.2298145 -28.1191425 -21.4673233 -12.8149977 -29.0737915 -20.3100491
  31.0452061 -18.6137123 -12.0896196  30.1860905 -18.5418797 -11.6493311
  31.6657963 -18.4417248 -11.3345871  25.4094582  40.7075348   6.9177880
  24.6003189  40.2156525   6.6963844  25.5085983  41.1709480   6.0143023
  19.6951637  44.6478348   2.5998092  20.5034542  44.1443214   2.2210510
  19.2145767  43.9837418   3.0523067   0.0313558  -1.8412071 -30.9678478
  -0.9864688  -1.8982409 -30.7258053   0.4075052  -2.0729632 -30.0898209
  -9.3881836  37.7503586   1.3582920  -9.7028160  37.0983429   0.6691665
 -10.0448799  37.5502663   2.0443945  -5.4232578 -28.1433792  34.5530128
  -6.0918393 -28.1139584  35.3048630  -5.4557333 -29.1251755  34.3729477
 -34.8226357 -35.7020531  13.8490877 -33.8708115 -35.7690620  13.6946192
 -34.8773041 -35.4736977  14.7894497  -2.3615677  40.6360588  10.8009787
  -1.9139658  40.7799377  11.6199751  -1.6367755  40.7392502  10.1535387
  12.3682299  -9.8880339  53.1086121  12.5411386  -9.7387753  54.0913429
  11.4716835  -9.5273790  53.0245247 -36.3999252  20.1732578  -3.4680381
 -36.9057579  20.9767094  -3.2034485 -36.2923088  19.8207779  -2.5210154
   1.6742424  29.3628101 -33.4404144   1.6078384  29.5553837 -32.4698181
   1.9162278  28.4007130 -33.4187927  -0.9438474  -3.7021859  23.1900139
  -1.7752039  -4.1305404  23.4305553  -1.0464497  -2.8001611  23.5241661
  12.4753513 -38.8769684  19.5441723  12.0174742 -38.0587158  19.4563026
  12.3521032 -39.0696793  20.5074539  33.7540512  34.0412407  -0.7007471
  33.0122986  34.6201439  -0.4571341  34.1392746  34.4983521  -1.4868224
   4.1350985 -20.3454800 -38.0985680   4.8028884 -19.9143925 -37.4965401
   4.3663321 -19.9794502 -38.9727554 -14.6235914  24.9059772  11.9757700
 -14.1342888  25.6147270  11.5416737 -14.1259069  24.0772686  11.6345692
   4.5680866  14.5487814  -3.6621168   4.4614139  15.4624128  -3.2437851
   3.9417510  14.6436701  -4.3797355  -7.6987739  -4.7567306 -45.5977783
  -6.7929697  -4.6664457 -46.0568047  -8.2161083  -4.8318601 -46.4416428
   5.0768142  33.0676651 -24.4951744   4.2689452  33.4240875 -24.0691891
   5.1544552  33.7060547 -25.2317924  -9.2176924  28.5358925 -34.8490791
  -9.2137556  27.6735268 -34.4321709  -8.7075424  29.0874233 -34.2201309
  29.3026943  17.9457741 -16.6521378  28.9009647  18.0147324 -17.5629539
  30.0884094  17.3584232 -16.8912735  -8.2719984  38.1497231  27.5417480
  -8.3110895  37.6672783  28.4141369  -9.1297836  37.9427872  27.1559067
 -24.6587639  -5.6587090  34.4096336 -24.0033150  -5.1175928  34.8533058
 -25.3911419  -5.0148268  34.4683304  38.5382919  27.8327827   7.5945449
  39.0932655  27.8258495   8.3997288  39.2724953  27.6796799   6.9356956
   6.5893912  -2.5850158   6.4832873   6.5316095  -1.9000316   7.2106962
   6.3880816  -1.9507328   5.7142291  -9.5029459  10.7151527  43.8737793
  -9.8486919  10.6862726  44.8385620  -9.8595839   9.8584690  43.5224953
 -38.4344292  10.0264330  22.8816586 -37.4837608  10.1021833  23.1069374
 -38.4915504   9.0009003  23.0579205 -44.2589989 -20.1694393  15.5846329
 -44.4463043 -20.2309589  16.5134048 -43.2888184 -20.3055973  15.4985361
  41.1882133   2.9258409  25.6281910  41.4303207   3.6486423  26.2031498
  41.4970551   2.1432650  26.1222916  13.0548429 -12.6240339  17.2038250
  12.8293076 -13.5778379  17.4335632  13.2164278 -12.7355776  16.2929554
  31.1762848 -21.6935253 -20.2160130  31.7050133 -21.0918350 -19.6461620
  30.7443447 -22.1617546 -19.4419212   1.9901311  36.7541695  -5.8512621
   1.5232203  37.0977745  -5.0681643   1.9785023  37.5688133  -6.3871794
  -6.9342499  19.5388050 -21.2096500  -6.8910823  18.9301281 -21.9971523
  -7.9108191  19.7096119 -21.2048130   8.9650383   4.1027584  26.6626129
   9.3296862   4.3063784  27.5213146   9.0767736   4.9692526  26.1802845
  -4.6854920  -4.2981420 -33.8059006  -4.1406755  -5.1075416 -33.9587555
  -4.4292579  -3.7245030 -34.5354462 -42.4500160  -8.4963446   0.5791056
 -42.8507996  -9.1259241   1.2130673 -43.1848106  -7.8979812   0.4051718
  17.3943806 -36.7294083  10.2116632  16.7517376 -37.1836319  10.7824402
  16.7794113 -36.0764580   9.7675848  -5.0705495 -36.2519722  -2.0893536
  -4.9682074 -36.8780022  -1.4009358  -4.3779240 -36.5284119  -2.7085452
  43.5074158  -4.4197559  26.8360653  44.2869949  -3.9203629  27.1711159
  43.1112633  -3.7137816  26.3047562   2.9871056  24.3351955 -34.0138283
   2.7669828  24.3958492 -34.9756737   3.9133198  24.5298653 -33.9404564
  29.4076824  -7.7522879  37.9701691  28.6735191  -8.0483074  37.4761734
  30.2005825  -8.2994661  37.6396637 -20.9416332   9.4697180  12.0341167
 -20.4240513   8.9866667  11.3192091 -21.7102356   9.7922955  11.4714518
 -27.3952560 -20.3106060 -30.1998940 -28.1269722 -19.8840446 -29.6701660
 -27.0895367 -20.9802589 -29.5873127  22.6514626  -8.7557287  23.0393734
  21.7091160  -8.5502710  23.2747211  22.6930923  -9.6990442  23.1391563
 -39.6514130 -31.6574306  -6.3691206 -39.2741013 -32.3445549  -6.9906864
 -40.3473320 -32.2310181  -5.9203858 -15.3742380 -33.8427048   7.2991967
 -15.3063774 -34.3150291   6.4412293 -15.3479271 -34.6249847   7.9187613
  21.7018051   3.2255325  21.6208096  21.3247013   2.3599839  21.3168163
  22.6591072   3.0274193  21.4202576  23.6973419  34.6431351  21.8094025
  23.6532192  35.6228981  21.7580795  24.5434361  34.5411568  22.1967278
 -31.1744919 -23.4175835 -23.2731152 -31.3911724 -23.5316563 -22.3438168
 -30.7446041 -24.2883034 -23.5082607  14.4800463  25.2426758  -2.8037274
  14.4018755  24.3531799  -2.3647168  14.8267441  24.9863091  -3.7071903
 -43.7230492  -2.1627665  27.1427498 -44.3373985  -2.2845864  26.3658104
 -43.9078865  -1.2546993  27.3857574   9.0976067  -7.4475975  11.3971872
   9.9489470  -7.1076913  11.0856152   8.6601982  -7.6481657  10.5652323
  40.6436424 -25.1232758 -16.5095387  40.8953667 -26.0933189 -16.2803020
  39.9659805 -25.3115673 -17.2137604  -9.0632992  -3.4647262  23.9579391
  -9.3182440  -3.1410358  24.8651733  -9.6489840  -4.2663665  23.8633461
   4.7257481  -3.4639652  27.4761963   4.0021501  -3.8389149  28.0309906
   5.4472904  -4.1349459  27.7479477  32.7342758  15.6025925  -9.1936836
  32.8731308  15.6282206  -8.2476759  31.7852402  15.4759188  -9.2686052
 -40.4023781 -32.1552353   4.7934065 -41.1374016 -31.8650856   4.1740184
 -39.8956299 -32.6597633   4.1398396   0.4912412 -34.0668602  21.0863075
   0.9074188 -34.4411278  21.9092369  -0.1703459 -33.4759216  21.5012455
 -42.5008659  -6.4364171  -4.7522998 -42.3250084  -6.9631906  -5.5984874
 -43.0852966  -5.7188644  -5.1088047 -23.3749180  25.5105648  34.9072762
 -22.6097469  25.6500549  34.2907066 -24.0982952  26.1112061  34.5656052
  24.3792686 -19.4013386 -18.8783817  24.1797180 -18.8625202 -18.1382961
  25.1241322 -18.9273643 -19.2636776  36.7476997  -1.4717746  18.1259270
  36.0708466  -1.3712326  18.8270912  37.5646782  -1.1153407  18.6534462
 -19.7899551  35.2040749   6.9468417 -18.8368587  35.2256775   6.9790459
 -20.1078091  36.1081467   7.0899720  -1.6189780 -35.5330124  11.9052029
  -1.4698306 -35.6456985  12.9081755  -1.7223220 -34.5304794  11.9594688
 -14.5112257 -17.0262566  27.5175705 -13.9151106 -17.7515793  27.1273422
 -15.1261797 -17.0236988  26.7839565 -43.0516205   9.2611513 -27.9760075
 -43.4529800   8.3805647 -27.8128757 -42.2348518   9.1202421 -27.4047623
 -14.1227694  25.7223339  -8.1345787 -14.6228790  26.1319237  -8.8840561
 -14.7977190  25.7859554  -7.3942165  42.4593697   3.4371562  10.9291430
  42.1132469   2.5419898  10.8561325  42.0368385   3.7600245  11.7050076
 -12.8810549  42.3012199  14.0087986 -12.4551830  41.5680313  14.4965591
 -13.5385637  42.6808167  14.6341476 -10.4181757 -18.3210163  -7.3776627
  -9.6876669 -18.8252392  -7.7417970  -9.9080343 -17.6149311  -6.9019561
  30.2127304  23.8253727 -13.5170822  29.4223003  24.3712959 -13.3787956
  30.7381458  24.0711422 -12.6884909 -39.3013382  12.9685869   5.4232049
 -38.6491013  13.1970549   6.1490664 -40.0844688  13.3903580   5.7714500
  35.8805084  13.4642591 -10.2469482  35.4636192  13.8596191  -9.4263229
  36.7012253  13.1620693  -9.7924299  33.3715057  -1.7008618 -13.8617716
  33.2938919  -0.7727131 -14.2393703  34.0931129  -1.6438667 -13.2252150
 -29.4501972   5.0924168 -11.6593132 -29.7215271   4.9224477 -10.7118835
 -30.1690693   5.6464405 -11.9353342  10.6782923  -5.3487630 -13.4846516
  10.9636402  -4.7353859 -14.2431698  11.1759586  -4.8461089 -12.7435865
 -30.6992970  25.4943581   8.6037941 -30.7470551  26.4337349   8.7032232
 -30.0332584  25.3170376   9.3238945   1.7157685 -32.6297874  17.3677158
   0.8418751 -32.3305550  17.5544720   1.8767771 -33.2442055  18.1634998
 -35.9709702  13.4979239 -15.4127254 -36.3321342  12.6995583 -14.9528732
 -36.7056694  14.1487331 -15.3230171  -7.4090290  23.6255646  -6.9784980
  -7.3719549  24.5791245  -6.9941998  -6.5211391  23.3249779  -7.1124277
  20.2873783  44.6383934  -5.7371402  20.3119869  44.1761589  -4.8851557
  20.2312527  43.9039268  -6.3460178   8.3756313   9.4376631   2.5116785
   8.7959776   8.6619005   2.2243302   8.6050367   9.5457344   3.4626095
  24.0470257 -12.2330990 -15.3292570  23.1169853 -11.9685526 -15.3678398
  23.9314384 -13.2163029 -15.4837370   6.1694779 -29.5928764   6.8338327
   7.0034242 -29.2428665   7.1498647   6.0655251 -28.9936962   6.0177217
  27.1382580  17.8708477 -10.0973463  28.0157242  17.4512749 -10.2371864
  26.6437244  17.2319469 -10.6965971  -7.9097419  31.4695683 -39.4007378
  -7.7986293  30.4888096 -39.4657936  -7.4234495  31.6707840 -38.5753822
  36.0460129  10.1853657 -12.6144543  36.4185257   9.9691095 -13.4507675
  36.8095169  10.0581913 -11.9774303  11.8212023 -13.7511253  14.3461771
  11.9354830 -13.0224791  13.7547932  10.8492584 -13.8072109  14.4045324
 -23.0087299  33.0296364  -6.4155521 -23.8125324  33.5853195  -6.1477914
 -22.2898579  33.5672531  -6.0310478 -33.3993874  17.7884960   5.3957682
 -33.9873772  17.0837746   5.0151439 -32.5646324  17.6175518   4.8525362
 -18.4881630  19.2147064  -4.9836946 -18.0606594  20.1226444  -5.0331626
 -18.4178791  19.1299992  -3.9527481   2.8675239 -15.0825052  20.3343544
   2.7285712 -15.6352148  21.1045666   2.3566399 -15.5489693  19.6240940
  30.0092926  37.2743378  15.0364075  29.8497524  38.1209908  15.5374136
  29.1337852  36.9606209  14.7446756  27.6977463 -21.1991158 -16.5788383
  27.3243103 -22.0359383 -16.3889484  28.4361897 -21.4723434 -17.2047634
   5.4197989 -18.4823112  10.9902582   5.0181646 -17.6265259  11.2650671
   6.1688232 -18.5285950  11.5952988   1.5204895   4.6902032 -30.3574200
   0.7749577   5.0132427 -30.9123459   1.7415099   3.8833928 -30.9205856
   5.2790060 -13.6558475  20.7593842   5.6930046 -14.4763632  21.0633526
   4.3830380 -14.0510015  20.4698792 -39.9417305   7.3798385 -31.0044518
 -39.6933250   7.8322334 -31.8187103 -39.8236122   8.0562811 -30.3262234
 -10.8655224 -32.2510529   8.5072193 -10.5432167 -32.6060829   9.3641949
 -10.1432095 -31.7286568   8.1596098  15.5701380  44.3669853  -7.5516901
  16.4785385  44.2511101  -7.2008076  15.5677671  43.5876389  -8.1623402
   1.7603759   8.2988214 -12.0649796   2.2688541   7.7528796 -12.7109728
   0.8715523   7.8135633 -12.1287880  -9.7178955 -11.1787977  -3.6179900
 -10.2555809 -10.3681107  -3.5452831 -10.3408318 -11.7427702  -4.1630597
  14.5734501 -18.7805042  46.0846519  14.1847620 -18.5840912  45.2311859
  15.1945286 -18.0362568  46.1852875 -18.4741745  13.6490965  46.6048622
 -17.7030449  13.0274944  46.4415092 -17.9040775  14.3151894  47.1306915
  11.1360703  31.7540550 -17.5010853  10.6969681  30.8884182 -17.4124680
  11.0384531  31.9130230 -18.4802628  22.1712780   8.5224705  17.7864590
  23.0372066   8.7047482  18.2371597  21.7701759   7.8858624  18.4083214
  14.6177034 -20.1717548  -0.5192442  15.4818611 -19.7553196  -0.5811095
  14.2091188 -19.8957462  -1.3523548   7.8970313 -18.0149193   4.7124014
   7.6940041 -17.7743073   5.6425438   7.0121393 -17.7243099   4.3304882
   7.7094469 -32.8678246   7.9530210   7.1285548 -32.1585999   8.2340231
   7.8796496 -33.2734032   8.8645515 -12.4330397  38.3804092  -0.2593718
 -12.0629759  39.2489967  -0.4582468 -12.9507332  38.1828957  -1.0269653
   4.5400052  11.5706139  18.7995338   4.5178552  11.3815708  17.8441830
   5.0601249  10.8060055  19.1085606   9.9398956  16.6150646 -35.5892563
  10.5000124  16.8605843 -36.3514061   9.2355309  16.1651611 -36.0690002
  -7.8145194  17.8403168 -23.3179226  -8.0199804  18.6313705 -23.8321953
  -6.9436646  17.5798798 -23.7242641  12.7817965  25.3651848  33.1310921
  13.5131779  25.9356747  33.3646584  12.0476036  25.8903141  33.5163994
  -5.8350644  10.1528673 -39.2782440  -5.8104491   9.5535793 -40.0404968
  -5.4611330  10.9465675 -39.6396637  28.7176189 -20.7423515  24.4335327
  28.7282715 -19.7737007  24.2836323  28.4322586 -20.8212833  25.3427353
  10.8648567  17.6007671 -38.0708618  11.0037975  17.2604122 -38.9920120
  11.7107363  17.2743893 -37.6427155  12.6079531 -19.8508854  -2.6275520
  13.0279236 -20.7244015  -2.7183998  11.8978806 -20.0331841  -1.9892360
  29.5974483  30.1440945  -4.2675672  29.9712086  29.3362732  -4.5980272
  29.1711254  30.5107803  -5.0955615 -26.3574085  -5.2234545 -29.7698879
 -27.2846546  -5.3112984 -29.3764439 -26.3280888  -4.3098779 -29.9879742
  13.9211149  -5.7541313  -8.9491415  13.1146250  -5.9385781  -9.5048752
  14.1699610  -4.8953562  -9.3680105 -11.2264795 -36.9911232  16.2580814
 -10.4172192 -37.6271172  16.2203884 -11.6271753 -37.3261070  15.4210405
  27.8424892  -6.3164849  44.3138847  27.5409508  -7.2315741  44.5675392
  27.1474972  -5.8217154  44.7601166  25.6750641 -33.7062874 -20.5224018
  25.3383942 -34.2538490 -21.2462044  25.1966209 -34.0672798 -19.7414875
 -16.8574810  39.2167854  11.3772707 -16.2946281  38.4753990  11.7096119
 -17.4032650  39.3747330  12.1615257  10.0029478   7.9878845  33.0408936
   9.8604841   8.1590014  32.0904427   9.1041021   8.1117687  33.3950729
   0.2981352  -0.5234543   4.6795249  -0.3764482  -0.6852115   3.9857852
   1.1005082  -0.8757187   4.3414783   7.9593740 -16.0721874  -6.3219752
   7.0355310 -16.3718910  -6.4190674   8.2809305 -16.1654587  -7.2969384
 -23.1410141  36.3619804   1.8543712 -22.6968307  36.3002167   2.7164373
 -22.9706707  35.4897957   1.4507028 -28.2195568 -35.2732658   1.9608121
 -28.9101810 -34.8063202   1.3586564 -27.7399120 -35.7609177   1.2582623
 -24.2188892  16.8479977  21.7095032 -24.7639332  16.2437801  21.0790348
 -23.5688171  17.1818199  21.0586166  -8.8304424 -39.3328094   9.2048607
  -8.5516634 -39.0923080  10.0924768  -9.3904877 -38.5710869   8.9603786
 -35.9226532 -28.7442684  -8.2410917 -36.4581490 -29.2946568  -7.6216474
 -35.8556404 -29.3746567  -9.0269375   0.2115212  37.9955444  -4.0681133
   0.8386040  38.5906334  -3.5966914  -0.6423469  38.3530655  -3.7104180
  34.5044899 -27.6846886 -21.6518822  34.3687286 -27.1966400 -22.4879589
  35.1567230 -28.3264313 -21.9345055  28.5620537   6.0222239  22.3043575
  29.0446072   6.7075458  22.8685169  28.7755890   5.2342248  22.8509560
  24.4606800  -2.6683993  18.0907421  23.9655972  -3.0974016  17.3658409
  24.1823406  -3.2321155  18.8226757  13.8839264 -41.1706886  -8.2531052
  13.1934566 -41.0511894  -8.9745293  14.6119671 -40.7025719  -8.7648211
  23.5981693  -2.4257073  -3.3805039  23.2426376  -3.3351827  -3.2637064
  23.7437286  -2.2224386  -2.4185576 -28.1615372  15.9507751  -7.3150325
 -28.6427956  16.4378586  -8.0284863 -28.6941776  16.3386154  -6.5924935
 -43.0719147 -29.5130749  -3.9169698 -43.5198059 -29.1566639  -3.1041944
 -43.8695793 -29.6599693  -4.5109143  16.4355392 -22.3507729  19.1871090
  15.8635302 -21.6215725  19.5810280  15.8490410 -22.5649872  18.4543819
  -0.1461187  33.1050529  22.3924580  -0.3309154  34.0183678  22.0431080
  -0.1691143  32.5847511  21.6073208   9.3576269  30.3648014  -0.2723318
   9.6795158  30.0268631  -1.1505752   9.9560986  29.8189449   0.2692827
 -12.6423321  -2.9910133 -41.4327164 -13.1888218  -3.8124738 -41.0918465
 -12.7544012  -3.1143329 -42.4151001 -25.2781582 -15.0379429  -2.6864092
 -25.8849316 -14.5786152  -2.0712061 -25.7958412 -15.8637533  -2.8665824
   1.1081542  19.4725571  40.6212769   1.7456472  18.7486496  40.9105606
   1.7035249  20.2222042  40.8963737  -4.3237190 -32.6292267 -19.3926449
  -4.4724188 -31.7786102 -19.0782032  -4.6729364 -33.2504272 -18.6889648
 -31.6091843  18.5752525 -30.9999771 -31.8174076  17.8526707 -30.3199139
 -30.7952118  18.8843155 -30.5507946 -33.5539513  18.5608139  30.1989975
 -33.5137444  19.4078350  30.7066746 -33.9783669  18.8536739  29.3731899
 -33.3901520   8.7755413  34.9835739 -32.9579315   7.9844861  35.0401154
 -32.6779137   9.3293715  34.5591049  18.4732151   4.8141022  -9.3981371
  17.8697891   4.1489191  -9.7741203  18.6989193   4.2754712  -8.5689640
   3.3054452  29.5289402  19.2316132   2.5556874  29.7229633  18.5757847
   2.8736887  28.8304977  19.7896976   7.5644217 -40.5096588  19.4017048
   6.9678102 -39.8816032  19.8194580   8.4519930 -40.3391457  19.8380890
  -0.9230507 -29.4682369 -23.5310097  -0.9949208 -28.4899712 -23.4203205
  -1.9010838 -29.6993198 -23.6599102   2.4686239  27.5064011  -8.4579420
   2.4970629  26.5728970  -8.7623367   1.5745059  27.5847569  -8.0829363
 -11.4314489  27.8765488 -19.6339436 -10.4596806  28.2409477 -19.6689873
 -11.5655880  27.7537289 -20.6097984   0.1214567  45.7992706  -6.2411284
  -0.3143541  46.2633095  -5.5542493   0.0575964  46.4663277  -6.9691014
 -22.9095383 -31.0734138 -23.5383568 -23.4867992 -30.5814819 -22.9556465
 -23.5993443 -31.4315414 -24.1843605  37.7288246 -10.8729095 -30.5820789
  37.9033470 -11.5025139 -31.3578453  36.7765656 -10.7358656 -30.6937237
  20.3115768 -13.7164526 -43.4850426  20.4488583 -14.6070566 -43.9579124
  20.8736362 -13.1508961 -44.0541039   2.6882946  30.9413509  15.2699614
   2.3064556  30.7949200  16.1822128   3.6511116  31.0025368  15.5564032
  17.4786320  19.3113327 -15.5393324  17.9300022  19.9875488 -16.1543331
  17.5089607  18.5764942 -16.2268734  25.6990585 -29.2623329  13.5751076
  26.6096210 -29.6743565  13.5079851  25.5253983 -29.4253902  14.5537090
  34.8013802  -2.5323300   0.8963796  34.7021217  -3.4489665   1.1838977
  35.0006943  -2.1437113   1.8199075 -27.0458393 -12.6233130   4.5880861
 -27.6617260 -11.8845911   4.7874169 -27.6153030 -13.3909435   4.7303629
  29.7609634   9.8886967 -21.0512962  29.3586197  10.0150080 -21.9350109
  29.4379559   8.9034071 -20.9124374  20.2756920  37.1305580  -7.3731246
  21.0858555  36.8055840  -7.7459602  19.6136398  36.7881851  -8.0079689
   9.5480766 -32.6253929  -7.8420029   9.3593559 -32.0159798  -7.0776000
  10.3997707 -32.2473869  -8.1304398 -37.4970436 -14.2224703  11.5422821
 -37.8424606 -15.0862465  11.6808996 -37.6358871 -13.7557640  12.4042473
 -31.6308994 -27.4484730   7.5464458 -32.1310616 -27.7077465   6.7779484
 -31.6524391 -28.2517300   8.0777731  38.1742287 -21.5332851 -20.5114689
  37.7023201 -21.5739460 -19.6352253  38.8185844 -20.8015003 -20.2584076
 -33.0828209  21.3933315  29.0990582 -32.3754501  21.3335762  28.4534206
 -33.4472084  22.2540817  28.7810345  42.8065109  10.4555817 -23.0527573
  42.3709488   9.9246044 -22.3348274  43.5969200   9.8998652 -23.1888809
  11.2361546  -1.3799198  45.7136841  10.9490147  -2.2971201  46.0405807
  10.4935446  -0.8457428  46.0395889   0.4996558 -14.3816156   4.0346556
   0.7762358 -13.4686613   4.2824264   1.3965330 -14.7485428   3.8203204
   4.0649157 -34.8696899 -14.7704449   3.0890923 -34.9042664 -14.8364639
   4.2502141 -34.2351799 -15.4645004 -40.0198593 -12.8898211  18.1525764
 -39.9967117 -12.4778509  19.0573311 -39.2903404 -12.3392706  17.6620541
  36.4127426   4.5979729  -9.4530020  35.5313225   4.2907515  -9.8958549
  36.2570000   5.5555377  -9.5994616  29.5398598   8.8632622 -23.5314083
  29.1886959   8.0510864 -23.8533344  30.5168171   8.7486362 -23.5550117
  22.2740002 -27.6133156  24.0569420  22.3282642 -28.5613747  23.9972229
  21.2826672 -27.5042400  23.8515511 -16.8293629  -4.3418303 -33.2042389
 -16.0412426  -4.6166205 -32.6449242 -17.2008400  -5.2066054 -33.4093819
  12.1172733  42.3419647  -1.9306015  11.6704435  41.5033989  -1.7523012
  12.5343924  42.4693642  -0.9980670  -5.6439486 -14.0167713  -6.2329378
  -5.4504681 -13.2466831  -5.7084689  -5.7548027 -13.7086182  -7.1713133
  22.3533440  18.3618259  20.9747581  22.0481682  19.0353260  21.6436481
  22.0437450  17.5847416  21.4189606 -14.7004290 -27.0649052 -26.9851093
 -15.1349449 -27.6263123 -27.6353760 -13.7703276 -27.0695057 -27.3728828
 -14.3221149  38.4506226 -22.4087009 -14.8372822  38.3624039 -23.2200127
 -13.4287739  38.4238625 -22.7202225  -5.5195184  -2.4849126  42.0402298
  -6.0696321  -3.3534057  42.0574036  -5.6230211  -2.2484736  42.9620132
  -5.0277023  18.0466232  -3.0535727  -4.5928416  18.0687561  -2.1665220
  -5.4289026  18.9537201  -3.0502703  -5.4764266  -3.5565093 -31.2388783
  -5.1437573  -3.8722970 -32.0997162  -5.3695087  -2.6049986 -31.3638039
   9.6598988  30.5362854  -3.0718262   9.6172228  30.2170391  -3.9705529
  10.5252609  30.9820518  -2.9793284   0.4510667 -38.8831062 -29.8125114
  -0.4789954 -38.5549622 -29.5867901   0.6263090 -39.3657646 -28.9676151
 -36.8716583  32.5660095  15.9612026 -36.9357567  33.3215561  16.6149197
 -37.7709808  32.1948204  16.1537724 -42.0277100   5.7913895  20.1528072
 -42.5199547   5.9584756  20.9823475 -41.3136711   6.3708529  20.1545486
  13.5013409  -9.3104239   1.2996789  12.8411150  -8.6860037   1.6009898
  12.8977728 -10.1368141   1.2989439 -42.3019600 -24.7605553 -11.2490549
 -43.1051178 -24.8993797 -10.7742186 -41.6367645 -24.7210407 -10.4827566
  35.9123306 -18.0849648 -16.9638557  35.3462982 -17.2787094 -17.1612053
  35.2282867 -18.7547512 -16.7387886   2.1103628  23.7525444 -15.8852921
   2.6013701  24.5997105 -15.7060261   2.5582581  23.2538624 -15.1185455
   2.7207248   9.0707588  27.4563904   3.0029683   8.6803036  28.3032761
   2.7405095  10.0219269  27.6068783 -40.7257080   1.5695256  33.1933174
 -41.4636459   1.8196433  33.7709618 -41.1230507   0.8169624  32.7094231
 -43.1743622 -22.5098190   0.1604045 -43.1632957 -21.5780926   0.4599396
 -42.3064842 -22.5735245  -0.3303348 -18.2290764 -41.3822441  17.3579826
 -18.7135334 -42.1767006  17.1786976 -18.4959526 -41.2425423  18.2838211
  -2.6908562  -2.8261876  15.1481943  -2.6358159  -3.7648313  15.4446030
  -1.7239267  -2.6713390  14.9827852  -6.2659016 -23.5057011  18.8480663
  -6.9293361 -23.1114807  19.4943447  -6.5198522 -23.0661087  18.0183678
  32.3614693  18.6809082 -18.9058609  31.9404049  19.2418575 -18.2827873
  31.8282967  18.8861389 -19.7133198 -32.0167542   2.2707999  24.5181046
 -32.2373047   2.5504963  25.4016762 -31.0570545   2.5862837  24.4806728
  23.0759277  25.0333920  26.3400230  23.9993191  24.9192333  26.7306576
  22.8156052  24.1091843  26.2439632  23.2297878 -27.4758472  14.7171926
  22.2776775 -27.1720657  14.5201359  23.6466599 -27.2946072  13.8638039
 -22.8939972  23.9307861  32.0509300 -23.1445236  24.7451115  31.5245686
 -22.1567097  24.4445095  32.5983200 -27.0785637 -19.3271103  22.0329704
 -26.6326904 -19.8306065  21.3110313 -27.7726517 -18.8378315  21.5899868
 -28.0590019  12.8788185 -32.1658974 -27.5818481  13.4339075 -31.4695129
 -28.9375954  12.7744532 -31.8062515 -11.5014858 -32.6545486  -3.6428695
 -10.5590897 -32.3535118  -3.7162483 -12.0002661 -31.8314476  -3.7688091
  -8.8273764  26.5225582 -31.5406075  -9.3184500  25.6953545 -31.7779617
  -8.3689537  26.2241344 -30.7427292  31.7533646   4.9931951 -11.1397066
  30.8073883   5.1170931 -10.9457273  31.7030010   4.6560836 -12.0796490
  -8.3549757 -16.7251511  -3.2418811  -9.1106930 -16.1041431  -3.2202771
  -8.0183592 -16.6423588  -4.1625161  13.1250725  51.2185822  -3.0117853
  12.7901192  50.2706375  -2.8010762  12.5400047  51.3993454  -3.7708757
  30.7233448  18.0786037 -26.4238968  30.3738041  17.1736221 -26.7209148
  30.2838459  18.1214142 -25.5501060  25.5980778  28.3974705  21.9855232
  25.7403431  28.5573616  22.9532661  25.5662346  29.3346176  21.7258663
 -21.3630486  12.7168779  -7.0211916 -21.8506851  13.2969627  -6.3742404
 -21.6594181  13.0824385  -7.8525691  19.7741032  -0.8211120  33.0713272
  20.5956573  -0.5670273  33.4538155  19.1265049  -0.4084173  33.7221298
 -18.6444187  17.6951160 -20.6179543 -17.7980137  18.1035328 -20.5490208
 -18.9393921  17.8567791 -21.5293388  11.1450462  36.1598091  -3.8864646
  10.1851196  35.9859772  -3.6496348  11.1553183  37.1162491  -3.5335248
  17.2395439  -5.6062617 -13.5460176  16.5747604  -6.3698268 -13.4674988
  17.8808270  -5.8255119 -12.8619728  25.4952164  19.7286472  -5.9743104
  25.6318169  18.8102684  -5.6744103  25.7048054  19.6237469  -6.9548435
  -1.8370043  42.8080597 -22.0104122  -2.7200758  43.0228996 -22.2040062
  -1.5508963  42.0134239 -22.5011921 -30.5583305  14.3981142  18.2979565
 -29.6510201  14.0355844  18.0850353 -30.3212185  15.3239307  18.4700317
 -29.2057495 -28.4069366  19.0219574 -28.5036964 -27.7491169  19.2579327
 -28.8639679 -29.1765251  19.5664978  26.9584389 -14.9526272 -23.8453026
  27.2494392 -14.0670366 -24.1126614  26.8206387 -14.8204317 -22.8723164
  14.9042282  51.0114555  -5.6249924  14.7283993  50.0930557  -5.8793116
  14.3935795  50.9932899  -4.7599869 -23.3009434 -13.1937885 -23.2591820
 -23.4761753 -14.1128044 -22.9022408 -22.9191895 -13.4574804 -24.1094398
 -15.3253431 -27.5231457 -13.7071877 -16.2680168 -27.5575676 -13.8631983
 -15.1585360 -28.3403759 -13.1805601  21.3539448  43.6984215 -15.3531256
  21.1242847  44.3663673 -16.0272694  20.8490524  44.0438881 -14.5830908
 -36.6938896  27.1679020 -26.7133026 -36.0320969  27.5492496 -26.0837040
 -36.2655754  27.1896210 -27.5490723  -1.8831069  41.7513390  -6.6710482
  -1.1295730  41.4593658  -6.0658870  -1.3881423  42.4852982  -7.1586990
  11.6244421 -31.6507511  -4.6227102  11.0943298 -30.9263363  -4.2845836
  12.1177807 -31.1164379  -5.3206429  -8.7805967  33.2165947 -35.5199356
  -8.9876690  32.7848663 -36.3490562  -8.7058315  34.1794662 -35.7863808
   7.7619848 -26.4144001  28.8727360   7.5545363 -26.8421459  29.7459660
   8.6493788 -26.6475163  28.7780666 -38.2671585   8.5349979 -24.9556274
 -38.4248543   7.6376157 -24.5287380 -37.3191986   8.6407871 -24.6361732
   7.0453248   4.7735491 -47.6423798   7.1683545   4.2001977 -48.4290848
   7.6253090   5.5301218 -47.8368950 -29.3225250   0.8243296 -21.4036980
 -28.6073589   1.5103230 -21.3265400 -29.8714466   1.3143796 -22.0819454
   6.0296674  -1.0509737   8.5622540   5.6661415  -1.1042565   9.4329672
   6.9695849  -0.7799139   8.8591137 -10.5172977  34.3395309 -26.9357529
 -10.9166260  35.1806908 -26.5195026 -11.3184690  33.7844353 -26.8472309
  18.3904800   5.9453750  -0.1758259  19.3161049   5.8845830   0.1697173
  18.5067921   5.5075707  -1.0554596 -23.6368027 -24.7206211 -14.7620344
 -22.8998718 -25.0087547 -14.2585573 -24.0143032 -24.0194206 -14.1457758
  18.9272461  16.6588097   5.9716339  19.1471424  16.9898872   5.0219927
  19.7768040  16.2407894   6.1994114 -12.7808046 -40.3424873  16.4887753
 -12.4679241 -41.1923752  16.8565140 -12.8775415 -39.8773727  17.3756752
  33.4754486 -14.5915565  21.1001434  33.6652756 -14.0680008  21.9056091
  34.3005333 -14.5279646  20.5694771 -40.9442444  -1.9555120  35.7368813
 -41.8656006  -2.0336831  35.3731613 -40.4872246  -1.7038653  34.9434090
 -39.1076317 -11.0618038  22.5250244 -38.2223015 -10.7060280  22.7597828
 -38.9001846 -11.5273743  21.6770897 -28.3335514 -10.4316835 -22.9040279
 -28.2241173  -9.5575237 -23.3194695 -28.3840904 -10.9553785 -23.7655220
   3.8430803 -32.8404617 -16.3190899   2.8687150 -32.7744255 -16.1428776
   3.9120896 -33.0289268 -17.2243385   9.6280937  -9.3552551   3.3040755
  10.1140394  -9.8704529   4.0321355   9.3378105 -10.1038361   2.7184169
  19.2824154   0.8133706 -45.2291412  19.7765141   0.8667390 -44.3537598
  19.0755539   1.8120154 -45.2851906  20.5765743  27.1597977 -25.7901726
  20.2295895  26.9015980 -26.6352043  21.5518208  27.0761166 -25.9666595
  13.9432497 -35.0955734  35.4170952  14.5201616 -35.6564789  36.0022469
  13.3024063 -34.7792625  36.0549469   7.7622819  -3.1776991 -52.3841972
   8.1971216  -4.0542226 -52.4713783   8.5676155  -2.6160464 -52.1473007
 -11.0687380 -50.3857384   0.6992295 -10.7178888 -50.8228111   1.5727437
 -11.8586206 -50.8855896   0.5566746 -14.1323500  29.3452168 -43.1061134
 -14.2071304  29.8396645 -42.2302399 -13.4256887  28.6808300 -42.7832298
 -19.9938946  -5.6759667  16.1966381 -20.3087234  -6.6185579  16.0463943
 -19.8226318  -5.4396372  15.2171926   8.0302801  -6.6641135  -2.9219949
   8.7822847  -7.1868587  -2.5154984   8.4644213  -6.5207453  -3.8414223
  -0.3516112 -25.5144386   1.1812574  -0.8291892 -25.5911026   2.0013611
  -0.9113086 -24.9623623   0.5945387  11.8482294 -15.1510286 -28.8469563
  12.2920551 -14.7076464 -29.6045742  11.0061665 -15.3882723 -29.3212471
 -33.4538078 -24.2876072  11.6806812 -32.6542664 -24.1621819  12.2691326
 -33.2404976 -25.2483330  11.4808655  14.4955521 -10.4097252  -8.1901312
  13.7268362 -10.3478775  -7.5727429  14.0227947 -10.3059912  -9.0219507
  14.6354637  22.2617245   4.2915072  14.5239725  23.0622253   4.8535619
  14.2929792  22.6394978   3.4196577  17.2470875 -16.3134384 -15.3146067
  17.4933090 -16.2410717 -14.3565960  16.2328148 -16.2739925 -15.2156115
   1.0472002  29.6120529 -21.7647171   0.7349529  29.6901321 -22.7117290
   1.4309787  28.7435627 -21.7701340  -6.4591565  20.5010300 -36.3381157
  -6.0564766  21.4290085 -36.3842583  -7.3583379  20.8136349 -36.5390358
 -22.8262959 -18.0358295 -22.4171429 -22.2742710 -18.7653446 -22.0048122
 -23.6529427 -18.4871979 -22.5732555  -6.9906859  -2.4211321  47.0508194
  -6.5720282  -1.6051122  47.2905083  -7.3412580  -2.7674739  47.8582191
  18.9935894 -14.9749823  24.6315842  19.7161770 -15.1853352  25.2989597
  18.5847721 -14.1709023  25.0399837  37.7462616 -30.4420090   2.6105254
  37.9580994 -30.8529778   3.4668667  38.0132713 -31.2179718   2.0424321
  16.7043076  -9.4872904 -37.6970024  16.1476612  -9.8271189 -38.4531174
  17.6186428  -9.6532679 -38.0717163 -33.8313751  20.0128250 -31.0967140
 -33.1631393  19.2752018 -31.2082920 -34.4964638  19.4871578 -30.5400734
  42.3794670 -11.0344763  17.6255817  42.3796501 -11.5678139  18.4510040
  43.3476410 -10.7726641  17.6139870  35.8745766  30.7033157   5.4849658
  36.0407791  31.6225052   5.2745314  34.9687042  30.6424942   5.0778461
 -12.3895025 -51.2012634 -17.5073814 -13.3235207 -51.4870758 -17.3726921
 -11.9533052 -51.5630836 -16.7128925 -10.3505001 -20.2097569  17.4032536
 -11.1141376 -20.4708958  16.8980541  -9.6743793 -20.0909634  16.7262440
   6.5509572 -39.7607803   8.3009129   6.3177390 -40.1868362   7.4177828
   7.2689567 -39.2226181   7.9703555 -15.8774757  12.3435402 -11.8370628
 -15.1534615  12.5837870 -11.1987152 -15.5497990  11.4677744 -12.1147842
 -31.7914886  30.2524300 -12.3120890 -31.2160625  30.2955017 -11.5470600
 -32.5319366  30.8288708 -12.0282402 -20.4932346  31.7673492 -17.2581863
 -21.3137283  31.2218456 -17.3315792 -20.1712322  31.3880596 -16.4337425
  -2.2325668  24.0881481   2.5167434  -2.4596572  24.9018993   1.9352702
  -3.0922968  23.6576195   2.4501350 -38.6710663  -2.3711169  20.3873577
 -37.7819481  -2.7696564  20.2794056 -38.4955711  -1.4537252  20.3486900
 -42.9398308  15.2582712  -2.1487377 -43.5305939  15.4224262  -1.3827194
 -42.4311180  16.0489712  -2.1345806   4.7541103  28.6607361 -31.7746964
   4.8517270  28.6452942 -32.7603645   4.6986012  27.7103863 -31.6860332
   1.8982790  32.6282997  -5.2668552   2.5413277  32.5270996  -4.5561113
   2.3536279  33.1518097  -5.9435115 -14.7682848 -46.5999565 -19.8636894
 -14.7031202 -45.6512566 -19.8767986 -15.6068726 -46.7396698 -19.5142689
  30.4646816   5.2408385  29.0641289  29.8443546   5.2450428  28.3134880
  30.4489784   6.1343813  29.3757553  14.2308216 -24.9004536   1.9297107
  14.0405579 -24.9985867   0.9482391  15.2050571 -24.7652607   1.8612673
  -0.4073110 -29.8139019 -35.5058632   0.2204962 -30.5007019 -35.1045990
   0.0906333 -28.9750423 -35.3243065   0.3294501 -19.6479931 -11.3415785
   0.7652636 -20.3490181 -11.8771658   0.7823382 -19.8854866 -10.4729967
 -27.2811146  10.9154005  29.0513725 -26.3456783  10.8545027  28.6975231
 -27.1100101  10.7125721  30.0350189   7.2373719 -11.9798574 -23.7995758
   7.5646257 -12.8348570 -24.1879387   7.6926951 -11.3723021 -24.4716301
 -15.7174845  -8.3287077 -12.6145840 -15.8765106  -7.4979939 -12.1316919
 -14.7588663  -8.1613054 -12.8146019  23.2730503 -11.2717514  42.7210426
  22.8555069 -10.8373146  41.9771080  23.1688538 -12.2036333  42.4082527
  11.0959454  11.6476030   9.0079489  11.0943613  12.2051706   9.8084993
  10.5564213  10.9053268   9.3615026  19.1983452 -10.7442780  28.0393963
  19.0277500 -10.4226637  28.9524155  18.3865433 -11.2631435  27.8634930
  -4.7249103 -33.3219490 -30.8555717  -4.4357924 -32.6455994 -31.4970207
  -4.8219633 -34.0717392 -31.5128365 -10.5149584  -2.9509180  36.8237267
 -10.7155218  -2.1120884  37.2871475  -9.7512770  -3.2952530  37.3896637
  17.8448811 -14.7219982 -30.3656940  18.0067368 -13.8862963 -30.7930984
  17.4437828 -15.2227621 -31.1373577 -26.5247822   3.0957894 -31.2741032
 -26.1911621   2.3270984 -31.8244400 -26.9263268   3.6398902 -32.0526390
  -1.2472302  29.0984745 -31.4056053  -1.2708434  28.1026173 -31.4780693
  -0.2822907  29.2064915 -31.1254120  42.3922348 -10.8358707  26.2432308
  43.3057785 -11.0588903  26.5986328  42.7509232 -10.4427595  25.3428078
   8.5466576  44.5523834   2.3116024   8.6867113  43.6473160   2.6146340
   7.9691372  44.4053879   1.5730197  20.7614155   8.8454933  -5.7137794
  20.0687771   8.1948156  -5.6076469  20.2415142   9.6474543  -5.8331394
   2.1826186  -4.9168162  -2.4367213   1.7096009  -4.5686526  -1.6715317
   2.5449922  -4.0727396  -2.8178463  26.7585297  12.1804504 -22.4693050
  26.7821198  11.2485542 -22.2995148  25.7877541  12.4263544 -22.3836021
  11.3709774 -29.3131409 -35.1719055  10.8374214 -28.4942570 -35.0584641
  11.3044348 -29.4713783 -36.1119347   0.3770266 -26.2662315  32.5542793
   0.9778874 -26.4635735  33.2841225   0.9881369 -26.3900204  31.7751617
   6.5648985   5.7140512  32.3725166   7.3738661   5.2252331  32.6356544
   6.5175028   6.3114271  33.2028961   1.3162440  29.9515476  17.5194588
   0.9804443  29.5085926  16.7208672   0.5592430  30.2125320  18.0236969
  39.8001213   1.6389872  -1.7012869  39.4569473   2.0558951  -0.8950499
  39.0515900   1.1111361  -2.0076270 -29.0960217  28.7669849   4.5941978
 -28.2632713  29.0343304   5.0723853 -29.1414146  29.5249691   3.9702778
  22.4979229 -20.6077480  10.6398201  23.2969131 -21.1053772  10.3116808
  22.0915604 -21.3362427  11.1428223 -31.8681679  -1.6992612   8.0893507
 -31.0536327  -1.4244456   7.5953937 -32.4723396  -1.7751079   7.3052816
  20.2324982 -39.4364319 -19.2106361  19.8547478 -39.8512497 -19.9907265
  20.5210609 -40.2775764 -18.7461491  20.6004295  -6.5680971  44.2278595
  19.6643353  -6.4144545  43.8190193  21.0037518  -5.7584538  43.7583084
  40.9758110  19.8395348   6.0232468  41.4394112  20.6881237   6.0768166
  41.0363846  19.6338482   5.0742359  -6.9778128  14.5884666  47.5500908
  -6.5767789  14.5753918  46.6711311  -7.8125648  14.0800028  47.4003868
  35.3004303 -29.4983768  -0.0728770  35.3965187 -29.9183292  -0.9903151
  36.0867767 -28.9472904  -0.0907442 -27.9043388 -35.0395660  22.1466560
 -27.3297386 -34.4477501  21.5879478 -27.2656784 -35.8346138  22.1345520
  13.8399858 -10.6938133 -32.3352089  14.6749563 -10.4887486 -32.7030296
  13.9607334 -11.5127888 -31.8161259 -16.3360748  -2.3495252  23.2949524
 -15.6150217  -2.2539148  22.6886177 -16.0738258  -1.7392712  24.0035744
 -42.9681091  16.1428528 -16.4224167 -43.0944061  15.5837336 -15.5697498
 -42.7600784  15.4223995 -17.0703697  12.4279356 -11.4361982  41.1677132
  12.9744949 -11.0357876  41.8710670  12.9286575 -12.2999859  41.0591469
  23.4311848  19.3452492  16.5845280  23.7351589  18.7615070  15.8326521
  22.8017731  19.9367771  16.0742188   9.6796122 -29.4227562  -4.1347651
   9.7311840 -28.5025520  -4.5016961   9.4453878 -29.1708107  -3.1764991
 -32.8828392   5.1391940  22.8646832 -32.7743530   4.3402405  22.3009014
 -32.4926529   4.7526031  23.6892109  17.6076584 -32.6747856  37.3575935
  17.6714497 -32.1942291  36.4623032  18.3432217 -33.3657722  37.1463280
  19.0561485  -3.7910988 -37.4369354  18.4367752  -4.1634340 -38.1129417
  19.9103527  -3.9265468 -37.9059677 -14.4519157   5.7401185  49.0181465
 -15.3324900   6.1773329  49.1335258 -13.8351460   6.4878335  49.0176392
 -13.2709246 -40.2894135 -20.1157722 -13.5908279 -41.1804199 -20.4756451
 -12.5465307 -40.6416664 -19.5578041  -5.2226844  21.4411201  12.2310562
  -6.1759834  21.7187881  12.3508339  -4.7969656  22.3321209  12.0200415
   4.0513253  26.7152100   9.5337791   3.6115377  27.5065784   9.1925240
   4.9315057  26.7842636   9.1443424 -12.5952616  30.9673519 -34.2372894
 -12.0296078  31.6960125 -33.9181747 -12.7835388  31.3612118 -35.1556625
  -0.4187726  -8.6189165   3.4474604  -1.3296940  -8.8495512   3.1064546
   0.0985635  -9.2574987   2.8855443  22.3208027  44.0327072  -0.9650692
  22.3650627  43.2155266  -1.5945473  21.6921673  44.5788498  -1.5248642
  -5.7616353  26.0435276  -1.9352710  -5.6138453  25.2666492  -1.3594488
  -6.6899872  26.2795982  -1.7414945 -27.0669098  21.4332695 -19.1003361
 -27.0901394  21.1913452 -20.1091709 -26.2026520  22.0023384 -19.1739769
  -8.4540186  -2.6143456   7.5835743  -8.0287428  -2.3251123   6.6965508
  -9.4112101  -2.5330050   7.3320937 -19.0118065 -30.8527660   1.3169261
 -18.5547791 -30.7776604   2.2200468 -18.2132072 -30.9284458   0.7589106
  -4.5853157  19.0994473  -9.9396639  -4.6467948  18.7783546  -9.0158520
  -5.3302593  18.5528736 -10.3387213  12.8389559  30.2602425  -0.3195148
  12.4971609  30.5260468  -1.2052187  12.6167288  29.2938881  -0.3511574
  31.0054684 -14.4671555  27.8097134  30.0995083 -14.5753613  28.1354656
  31.1886787 -13.5526400  28.2171459  40.6698685  25.3736458  18.5360432
  40.0222435  24.6475697  18.7489243  40.5696716  25.5024014  17.6019573
  32.7068253 -13.0987377 -21.0399055  32.3490410 -13.3436766 -21.9308548
  32.4254303 -13.9193707 -20.5467949 -23.8528194  29.0830402 -11.0624676
 -24.5032482  28.3429813 -11.1949673 -23.3451996  29.0419216 -11.8387041
 -35.1734543 -18.2084312 -12.6716700 -34.8249779 -17.4489956 -13.1573954
 -36.1425552 -18.2514877 -12.8956137 -28.4478149 -38.3856926  10.8209143
 -28.0994492 -37.6153030  11.3217735 -27.5849380 -38.8249092  10.5673847
 -25.7658958 -14.4760866  -5.6172404 -24.9614220 -14.8872166  -6.0686884
 -25.3709927 -14.2553186  -4.7326598 -15.9084940 -10.8740349  19.6161900
 -16.6932697 -11.4942818  19.4580822 -15.2467508 -11.6034956  19.8493958
  -2.6980820  -7.1977549 -10.0420570  -3.2100234  -7.3538876 -10.8880634
  -2.2003250  -6.3977680 -10.4584112 -27.3799057 -38.0355797 -16.2517281
 -28.2286625 -37.8617554 -15.8172550 -27.5737820 -38.9461708 -16.6536694
 -39.9183731 -26.6321373 -12.0804358 -39.6608734 -27.5848675 -11.7648335
 -40.4742470 -26.4432697 -11.2803421  10.2595530  33.6595268  13.2543879
   9.4473228  34.2832451  13.2699375  10.4231281  33.6088867  14.1949253
 -20.4216270  30.1141586 -35.9890366 -21.0386543  30.2181988 -36.7403870
 -19.5850105  30.4569893 -36.4306793   0.2819727  22.1658535 -19.3011589
   0.4568992  21.9034214 -20.2323418  -0.2557096  22.9771786 -19.4907475
  37.9420776  10.5586395  20.4156933  37.2939301  10.6769314  19.7741375
  38.5289230   9.8185167  20.1790466 -20.6125736 -20.1272507 -13.1093140
 -19.9959030 -20.0500679 -12.3439837 -20.7240181 -19.1327648 -13.2910042
   7.6553912 -36.7612076 -27.7339935   6.7896314 -37.2116013 -27.9044418
   8.1359491 -37.2050018 -28.4373322  28.4606380 -14.5900326  25.7559414
  28.2318764 -14.7505589  26.7248783  29.3552361 -14.1678257  25.8830471
   7.3455372 -35.0920410   3.0365942   7.3574438 -36.0255547   2.8653252
   8.2859392 -34.8320541   2.9414315   1.9876286  30.8616753   7.6261678
   2.4071288  31.7425041   7.8236723   1.8985355  30.9259109   6.6825743
 -43.2231636 -24.8886280 -17.0741444 -42.3751526 -25.3180656 -17.0590172
 -43.3168411 -24.7642097 -18.0680046  -1.5411323  12.1779890 -31.7413502
  -1.7393677  11.2721691 -31.4570084  -0.6641683  12.2198877 -31.2983665
 -22.8845844 -32.0931168  23.2052650 -23.6425247 -32.4406586  23.7284470
 -22.9205856 -31.1319923  23.3807316 -15.4495211  18.2164364  47.8324890
 -15.5862675  19.2002945  47.9795990 -16.2585239  17.9340458  47.4507751
 -22.5311756  20.0882149  -6.7198505 -23.4014854  20.5266247  -6.5095339
 -22.0042992  20.8482609  -6.9053459 -10.0264425 -50.2762985   8.8317375
  -9.6212444 -49.8123817   9.6097517 -10.8956270 -49.7324524   8.7976751
  -8.0764828  32.0031700  11.8050308  -8.4452486  32.2588615  12.7139177
  -8.9231625  31.7781353  11.3947792 -36.7830391  -0.3216591  21.0778198
 -35.8288078  -0.3498060  20.8894482 -36.8047791   0.1010007  21.9254475
   4.3758759 -41.2855682   1.6600790   3.4881065 -41.2694130   1.2246808
   4.0546961 -41.0792351   2.5860846  22.1440773   0.5056821   5.9729075
  22.7485180   0.8822211   5.3192863  21.6253719   1.3415570   6.1146407
 -26.4889832  33.4562035 -18.0522156 -26.6249485  34.3835220 -17.6538754
 -27.4306736  33.2038460 -18.0533257 -30.7359505 -24.4306107 -15.4362917
 -30.6230011 -23.4677219 -15.3953428 -30.3581924 -24.5877533 -16.3431892
  36.1843147  22.9057598  11.4193306  36.5386429  23.6360607  10.8008327
  36.5833664  22.1457100  10.9855719 -22.8886337  19.9433899 -26.8183556
 -22.5508289  20.4135914 -27.6497688 -22.2472115  19.1912804 -26.7960720
   6.6548920 -12.4981995 -32.0941353   7.2103744 -12.2957029 -32.8725891
   6.7989669 -11.7181301 -31.4903698  -9.2202406  24.5066872  21.0503349
  -9.0907202  24.8847733  21.9285221 -10.2027369  24.5722408  20.9813251
   9.0546780 -26.2536182  22.5411777   9.9161148 -25.8812332  22.1253071
   8.4035282 -25.6643925  22.2161541   8.8013592  17.8089218 -17.1945686
   9.0563812  18.7095242 -16.8676338   9.2300930  17.2429333 -16.4914742
   7.4058042   2.0232255 -16.0906792   7.5044947   2.9695499 -15.8056059
   8.3261309   1.9333694 -16.5298214  -3.6516166 -41.0550995   5.7098060
  -3.6403072 -41.0991173   6.6523037  -3.0286217 -40.3011780   5.5930238
 -30.5635033  -3.1174803  37.5207672 -30.1468277  -3.1862199  38.3853798
 -31.3245354  -2.5849056  37.7494087  -0.0100514  36.9021301 -14.5323191
  -0.4859896  36.2333908 -14.0615396  -0.7114186  37.4362373 -14.8729649
  -6.7539754 -28.9494495 -32.3117142  -6.7379169 -29.5983219 -31.5726814
  -7.1477799 -28.1649017 -31.7635498  21.9894695  11.4516354  -2.6047626
  21.8850842  11.9090939  -3.4836547  22.1634178  12.2307606  -2.0560303
  33.3398056   6.7567821 -14.3996687  32.6651268   6.1510472 -13.9802313
  33.1955528   6.5532184 -15.3753643  -2.6877782  -1.7069743 -47.2269821
  -3.2598071  -1.0301982 -47.6329498  -2.6523418  -2.3555706 -47.9933701
  -6.5873704  12.3435774 -26.7439480  -7.2641292  12.6281261 -27.3861523
  -5.8387647  12.0086508 -27.3222084  15.9443550   3.5052714  -3.0897164
  15.2236519   4.0336857  -3.5134499  16.6608734   3.5269353  -3.6815817
 -20.7542725  -4.6090364 -20.9761505 -19.8231430  -4.7070627 -20.7563705
 -21.1487293  -5.3324904 -20.3857918   8.9949837  25.9084091 -31.6211872
   9.6959162  26.5600948 -31.4693966   9.3060045  25.5448418 -32.5041962
 -33.4736862 -24.9274616 -15.6756983 -32.5441666 -24.5402718 -15.5061255
 -33.2284927 -25.8953953 -15.5634108  36.8876228   1.3107357  30.9056778
  37.0926933   1.8115426  30.1166191  36.3721848   2.0056350  31.4314594
  13.9601774 -20.6028080  -6.8605852  13.4163694 -19.8815575  -6.5908027
  13.7526913 -20.6142483  -7.8465929 -44.1262054  -3.2398632   1.7472571
 -44.2433968  -4.2097454   1.8291340 -44.2687378  -2.9925749   2.6853783
  14.0143337  14.4497299 -34.0950279  14.8053703  14.3788176 -33.5106659
  14.2944307  15.3191690 -34.5796089  -1.0892708  18.7743492 -34.9319420
  -0.6830431  18.2363510 -34.2103806  -1.7153045  18.0632401 -35.2963600
  -5.3594689 -48.4379120  13.0542078  -5.5596037 -48.1103172  14.0065279
  -5.8401818 -49.2827072  13.0892649   2.9434984  41.1100349  -0.2293933
   2.7284033  40.8478050   0.7277096   2.4914174  41.9570198  -0.1969466
  31.5078259  13.8720903 -22.3656445  30.6451359  13.5971069 -22.8705463
  32.0000572  13.0581779 -22.6608391   5.8327351   2.2456007  33.6423683
   6.1667953   2.4355114  34.5872459   6.7302208   2.1168966  33.2425690
 -32.7143326   7.5006833  -3.8221190 -33.1963501   7.5459132  -4.6955471
 -33.4819412   7.7285428  -3.2142258  17.6079998 -25.5190392  -8.0119982
  17.0444355 -26.0293827  -8.6324921  16.9067135 -24.8134747  -7.7961917
  43.7859421  12.4159374   7.2303581  43.7172432  13.1894293   6.6685505
  42.9224548  12.4846325   7.7066169   1.4516778  -4.2278962   2.6058247
   1.4414949  -5.1864619   2.6887305   2.3424923  -4.0245299   2.8179116
  17.5084801  10.3215075  -4.8417754  18.2310944  10.5718174  -5.5544338
  17.0633926  11.2143383  -4.9441051  10.1474543  23.4148560 -28.0063667
  10.6595201  23.9794235 -28.5673656  10.6623297  23.5035286 -27.1462994
 -11.7025118 -41.8174362   3.7087381 -12.1145344 -41.4396248   4.5517726
 -10.7392263 -41.5676765   3.9827833  16.1704216 -18.5612564  33.4186821
  15.3829279 -18.1585236  33.1440811  15.8874559 -19.1589909  34.1803093
 -13.4830275  28.8198032   3.8273473 -14.4325047  28.9251652   4.0668101
 -13.4088106  27.8560486   4.0495005 -27.0597515 -15.5315571   8.6204128
 -27.8863354 -14.9701433   8.4894476 -26.5083370 -15.1392269   7.9614158
 -33.4124718  28.1106300   2.6372731 -33.4435539  27.5233765   3.4363778
 -32.5667076  27.7271252   2.2382326  -3.9181936  31.9976902 -30.3789539
  -3.4646125  31.3884983 -29.7544956  -4.4978075  32.5167313 -29.8124561
  -2.2484868   0.5224880   1.7113893  -2.5309169   0.1954349   2.6165447
  -1.2354981   0.4262663   1.8662020  26.4795952   1.8403959  32.9524193
  25.5395584   1.9839317  32.6184998  26.8562946   1.5182838  32.0924072
  42.1841583  18.3917217  19.5501995  42.3488121  19.3407669  19.1853962
  42.6003952  17.9055996  18.8072662  -7.3925686  -7.4038563  42.0313416
  -6.5284467  -7.4221997  42.4071884  -7.8224034  -8.0225611  42.5874977
  12.5567122 -23.3006458 -42.3697853  12.7636633 -23.3816414 -41.4240150
  13.2124758 -22.5968037 -42.6265564  -3.3769937   8.6411066 -32.7432709
  -3.4601028   9.2306070 -31.9492226  -3.8103578   9.1910505 -33.4429283
  18.9444695 -25.7222519   6.5668097  18.2287521 -26.4045219   6.4386454
  19.3747635 -25.7742023   5.6912956 -16.4546165 -41.0017281   2.6873930
 -15.6122208 -40.9479485   3.1278665 -17.0032444 -41.2567711   3.4862309
 -28.7913685  16.2750092   0.0133245 -28.9980640  16.5502853  -0.9063641
 -27.8884468  15.9235315  -0.0809755  22.8652916  26.3005962   3.8974566
  22.5171757  25.7850590   4.6445045  22.7908783  27.2081738   4.1135712
  38.3319893  18.6708870 -11.5996199  37.4945030  18.6041126 -12.1106215
  38.5803299  17.6949787 -11.6269407   3.4555616 -23.9818363 -20.1084385
   4.1193099 -23.5079956 -19.4476604   2.6230183 -23.7411423 -19.6077118
  14.6485386 -40.7922134 -15.7205963  13.8602962 -41.3183022 -15.5122814
  14.2502813 -39.9327583 -15.9952631 -41.8063469 -22.5185928  22.4121056
 -42.3740158 -21.8888206  22.9247704 -41.4239998 -21.8491306  21.7942543
  29.2041454  -2.7452707 -34.5263596  29.8335648  -2.1291206 -34.9738770
  28.5867310  -2.1995714 -34.1684265   4.7389188 -40.9525452  -6.5689778
   5.4594908 -40.2133522  -6.6493096   5.2989764 -41.6385803  -6.0247726
   4.9888330 -26.4262600  -6.5530906   4.8260894 -26.5889626  -5.5409818
   5.8715477 -25.9544773  -6.4243784  10.0594225  -9.4317627 -33.4702415
  10.9322567  -9.0047722 -33.7431564   9.7163115  -8.6366472 -32.9564667
  27.8041401 -20.7855377  35.2308617  28.7073956 -20.4506397  35.1363258
  27.6687813 -21.2841949  34.4461060  -0.9540195 -43.7943649  13.9451208
  -1.1521007 -44.4635658  13.2638416   0.0217957 -43.6220665  13.7439127
   9.8757248 -41.0904884 -27.6619473  10.8175850 -41.1716690 -28.0708866
   9.7798805 -41.9478302 -27.2557201 -10.7710161   7.5063581   0.9979320
 -10.4061136   7.8986197   0.1538009 -11.7316160   7.8394909   0.8774874
  41.0281677   4.4552474   6.0044193  40.0927467   4.4670634   5.9678974
  41.3132668   4.6597142   5.0905962 -40.3143883  20.2512894  26.8644619
 -39.4978638  19.7559414  26.6613121 -40.9639435  19.8261318  26.2553368
 -11.1860628  16.7008419  49.0808105 -11.1338253  16.3879986  49.9948311
 -11.4668760  15.9041967  48.6529617 -40.4722328 -18.5964546 -20.4729519
 -41.1415024 -19.1961498 -20.8756542 -39.6779327 -18.7658272 -20.9775391
  21.9449215 -29.2009563 -37.2366333  21.9000721 -29.7171001 -36.4249001
  22.7943172 -29.4708347 -37.6453972  14.9936466 -20.3217850  30.8088226
  15.1157923 -20.6394348  31.7784061  14.0128727 -20.3543262  30.7968082
 -33.0469322  27.3026619  18.6244869 -33.5950127  28.1358128  18.5078220
 -32.6842041  27.2113075  17.7068615  27.4548874 -25.0336571  -4.3733826
  28.3622284 -24.9324913  -4.7657261  26.9088078 -25.2142563  -5.1468773
 -24.9830647   4.5421858 -11.4635353 -25.7579803   4.3317885 -11.9877768
 -24.3776226   4.8134689 -12.1397095   3.1081226 -33.4632683 -19.4585953
   2.6256773 -33.0065079 -20.1585083   3.9951870 -33.1415291 -19.5417519
 -15.6598654  11.2186728 -38.6022949 -15.6449013  12.1946564 -38.4642906
 -15.3008928  11.0431852 -37.6711998  18.3507042   3.3675387 -19.6465416
  17.7466984   2.6137016 -19.3615036  18.1082115   3.9868650 -18.9089947
  37.1708145 -15.2455473  28.6938133  37.2507362 -16.0872421  28.2660351
  36.6899261 -14.7014198  27.9911880 -13.9467916 -10.1424141  16.6769028
 -14.4425774 -10.7024946  17.2625542 -13.5398359 -10.7687159  16.0353069
   0.3422160  47.0423470  10.6769772   0.0396589  46.9175835  11.5898838
   0.3007871  46.2004509  10.2516356 -18.3813629 -19.2979088  -3.0847921
 -17.8753719 -19.1774654  -2.2542882 -19.2317410 -18.8639297  -2.7992570
 -15.1115713  -8.6238995  -3.9264948 -15.4035873  -9.1959639  -3.1729288
 -14.4054546  -9.1906843  -4.2204919 -31.9413395  10.1340599 -12.7581997
 -31.9698544  11.1343250 -12.9170227 -31.0483952   9.9265394 -13.1252937
  12.1022911  15.5565357 -20.9716816  11.5064631  16.1998501 -20.4964199
  11.4764080  14.8189440 -21.1239662  16.9285984  -3.6542211 -34.8823929
  16.9920368  -2.7886994 -35.3015633  16.3021927  -3.4968433 -34.1424675
  20.6580086  37.0072975  12.4123154  20.3049850  37.9328690  12.4439325
  20.4268646  36.8554878  11.4479265  -1.0374390  -4.7976613  42.6603088
  -1.0959860  -4.7810860  43.6269798  -1.2317562  -3.7982957  42.5104942
  -7.6281562  -7.0260038   6.3135867  -8.4171457  -6.7323151   6.8293667
  -6.9601336  -6.4445705   6.7499390  38.7809143 -16.4015617  16.0936108
  39.7396317 -16.3040810  16.1046047  38.5580482 -16.0885792  15.2205248
  25.4817314  -4.1085997 -39.4483795  25.1846409  -4.3176417 -40.3240395
  24.5784016  -3.8808637 -38.9804688  28.9202042  -8.2548504  21.2879429
  29.4892559  -8.0138645  22.0430946  28.1580238  -7.5980535  21.5037460
  31.6752853 -32.5213051  -8.2911835  31.7897720 -32.3614769  -9.2436934
  32.2018127 -33.3339348  -8.2708378  36.4409065  -6.9685225  19.4742012
  35.8243370  -6.2222853  19.6493206  37.2503433  -6.7395554  19.9262314
  -9.9677906 -33.8579788  15.0764275  -9.0705557 -33.6135330  15.2875681
 -10.0616064 -34.7410278  15.2801571  44.0106697 -14.9929543  26.6440754
  44.9076271 -15.4079828  26.5891037  43.8409843 -14.8329706  25.6978092
 -22.7284298 -23.9859467  -3.3972588 -22.4346218 -24.7958298  -2.9345248
 -23.0567131 -23.4790821  -2.6799760  14.5774326  10.7610426   6.9176493
  14.3762980  10.9606533   6.0141416  13.9768181  10.0013676   7.0739989
 -29.0225315   6.8452005 -32.1131401 -28.9058228   7.8127584 -32.1632042
 -28.7405148   6.6935120 -31.1932602 -30.0161800 -14.4210739  12.9307022
 -30.3379726 -15.3583345  12.8602362 -29.1454926 -14.6049242  13.2734175
   4.7025962 -26.1995296  28.3556881   4.3834286 -26.2422314  29.3103828
   5.5862656 -25.7790146  28.5654106  -7.9672470 -19.0763359 -39.0718346
  -7.3336897 -18.5236359 -38.4949684  -7.4342899 -19.0024948 -39.8779640
  32.8530769  18.7460575 -25.0345573  32.1280708  18.5308666 -25.7241592
  32.7866592  19.7670727 -25.1924934  28.2182083  -0.8012801  21.6295643
  28.0964317  -1.4792026  20.9031734  28.0851574  -1.4464064  22.3670292
 -16.2433090  35.6606522   0.7300003 -15.4809284  35.6640701   1.2936532
 -16.8000565  35.0179977   1.2549230  23.9121304   4.0159235 -26.3017292
  24.2751465   4.0301256 -27.2053986  24.6312027   3.4647841 -25.8876343
 -10.7516241  18.6526566  30.6226845 -11.3297548  18.4926205  29.8148746
  -9.9196177  18.4169197  30.2755070   4.5574417  -7.5990143 -28.2434082
   5.5338335  -7.4909916 -28.2926044   4.2534003  -6.8460655 -28.8057899
 -21.7264042  -4.7818508  33.4803085 -22.3763008  -4.1106710  33.7812080
 -20.9568920  -4.1996689  33.3272591  -5.7229381  -5.5585074   7.7061796
  -5.5134797  -5.9572778   8.5721064  -6.1284552  -4.7572021   7.9742017
  38.0903206  24.3854904  10.1451130  38.5085449  24.0679264   9.2887020
  38.9575310  24.9211216  10.4225721  23.1194248 -34.3040657  -0.7499028
  22.5485554 -34.8016586  -1.4047936  23.3742828 -33.5082932  -1.2692986
   8.3487530  15.7750349  10.9909697   9.1206026  16.0187645  11.5512238
   8.8979111  15.2580519  10.2877178 -16.3985043  30.7543259 -13.3451042
 -16.0952854  31.6837883 -13.4300041 -16.5183563  30.4896698 -14.2829437
   4.9517074  30.6545792  11.5262947   5.4876919  29.9424725  11.1643257
   4.1373596  30.4548054  11.0704794   9.2487898   1.4404582  -4.1151557
  10.0488873   0.9517070  -3.8859358   8.8067083   1.5492122  -3.2328746
 -18.8888741   8.8085737  -8.5475645 -19.5998135   9.3351421  -8.0927172
 -19.2955666   7.9025669  -8.4823761 -10.6232042  24.8502197  28.1073513
  -9.6339884  24.7999249  27.9776726 -10.8483887  25.7239342  27.7143536
  13.3235874  13.2312698 -19.9000282  14.1475677  12.9299870 -20.3174229
  13.2427549  14.0922565 -20.1942348 -14.7875519  24.0014286 -36.9176559
 -14.7769442  24.6059418 -37.7008133 -15.5677605  24.2912407 -36.4123077
  37.4064217   0.3323422   1.3250787  36.8647614   0.1321001   0.5101921
  36.7314110   0.6832975   1.8929622  38.1343193   2.2975204  18.8699932
  37.1929131   2.2268860  19.0879250  38.3816719   1.3831757  18.9239502
  13.5705853  -2.2175882   1.7033681  13.7191753  -2.9724205   1.0746033
  13.2526417  -2.7403150   2.4907577  -4.8050814 -31.2016792 -32.7997131
  -4.1333003 -30.9052067 -33.4317818  -5.5017862 -30.5486641 -32.9635544
  -5.9607024 -19.8007450 -13.1993999  -6.3979468 -19.0181446 -12.7268591
  -5.0566034 -19.3334751 -13.2519312 -38.5362129   9.6175718 -12.5057583
 -37.8025208   8.9689913 -12.4955559 -39.3135490   9.0768003 -12.8035746
 -10.5144815   1.1720244 -46.0882492  -9.5428705   1.2263768 -45.7795143
 -10.4814730   1.8586651 -46.8162727   8.8250675  21.6884575  27.2161160
   8.7862549  22.5196476  27.7942715   9.8259659  21.7206841  27.0305004
  -5.3261261  22.8546162 -36.4139786  -4.8457170  22.9272957 -37.3010025
  -5.6249132  23.8244476 -36.2952080  -0.8879622  -0.4274785 -19.7666111
  -1.8646761  -0.4415945 -19.5553417  -0.9934269  -0.6792759 -20.7474880
 -34.4648361  -3.1309993  16.4806614 -33.6610909  -3.0279582  17.0239544
 -34.4361420  -2.2773812  16.0086365 -21.5384254  33.8879738  22.1781120
 -20.8829136  34.1767387  22.8329029 -22.0143433  33.2752113  22.7497921
  20.4827042  16.4405518 -16.4637012  21.0560665  17.0830193 -16.9250488
  19.6513767  16.6146011 -16.9639359  12.9789686 -39.7345810  22.3900738
  13.0911407 -39.7868690  23.3670158  12.0334625 -39.8086739  22.3081970
   4.0029774 -15.2652292 -25.2244129   4.5913911 -15.0599422 -25.9960251
   4.4395289 -14.7962856 -24.4954529  28.6539116  33.5888596  -5.4366550
  28.3337059  34.4676056  -5.7539268  28.9995289  33.2051125  -6.2231941
   1.8468528   3.8835754  21.9656353   2.5603681   4.4184942  22.3440609
   2.1640923   2.9737167  22.2263260 -10.1690941   8.1219835  -4.0268955
 -10.2849169   7.1387234  -4.1044908  -9.8931818   8.3439512  -4.9541416
  30.9692402  -4.7895837   2.3769753  30.4390659  -5.6197972   2.1331584
  31.3663807  -4.5810513   1.5723231  39.0863647  13.6338253  24.0298119
  39.3284225  13.5160217  23.1144962  38.8738556  14.5849171  24.1387119
  -5.1861548  -1.2967976 -44.9875145  -4.3302855  -1.5888524 -45.3414612
  -5.7804070  -1.3826448 -45.7488174  -6.9765468 -45.7452660 -21.6108837
  -6.8307781 -46.2878723 -22.3822498  -7.4383826 -44.9455986 -21.9620762
  14.7148132 -34.6215439  11.7865839  15.5274801 -34.8885231  12.2402363
  14.1773434 -35.4137726  11.9921980  14.4379234   0.4509859 -34.6674690
  14.7129278   1.3796962 -34.8696098  15.1460390  -0.0331534 -35.0331421
  22.2673397 -10.7776575 -25.9929352  21.3551865 -11.0859728 -26.0898533
  22.7767506 -11.5964766 -26.0970707 -17.7209492  14.5136518 -38.5899506
 -16.7773685  14.2184639 -38.4074516 -17.7590141  15.1078262 -37.7698631
  36.5079727   8.5052376  -3.3694990  35.9273109   7.7499213  -3.6087811
  36.7288437   8.8465548  -4.2888794   1.6698766 -29.3417072 -25.0258255
   0.8166144 -29.0325298 -24.7076378   2.2456472 -28.6053162 -24.7094955
 -26.7817192  30.8069401  26.0638027 -27.2917633  30.1577759  26.6119537
 -27.5171146  31.3053265  25.6744976 -12.8933401 -37.5991707  -5.0748601
 -12.6718597 -36.6362267  -4.9124665 -13.5978031 -37.6790543  -4.3991957
  15.5633802  17.0377274  14.2620420  15.3656149  16.4217625  15.0011969
  16.5690556  17.0569782  14.2905712  10.8287525  45.1114540   0.7730698
  10.4549456  44.7991638   1.5953228  11.6847849  45.4988365   1.0671846
  20.0069771  41.3249817   6.5903234  20.4818687  42.1065216   6.3012047
  19.1241360  41.4988022   6.2112966  -7.5564189  14.1176548 -18.1977386
  -8.3034105  13.5003405 -18.3076591  -7.7933135  14.5526304 -17.3769627
 -21.7393742   3.1154850  36.6051941 -20.7913704   3.1448705  36.3038673
 -21.7660561   2.3235910  37.1489220 -39.5751801   0.2157431 -12.2493353
 -40.0296936  -0.6211258 -11.9865236 -39.4880638   0.5717718 -11.2944221
  12.8229189 -23.6539249 -29.8008366  11.9311266 -24.1823101 -29.7023830
  12.3661985 -22.8212795 -30.1075497  16.0578270   0.4880962  -4.5147672
  16.5387974   0.4078043  -5.3384495  16.7774601   0.4424122  -3.8481801
  43.3204689 -29.7650852  -5.0605040  42.7878456 -30.5804443  -4.9035015
  42.7367477 -29.3158932  -5.6678276  -6.7698283 -18.3444920  -0.0934739
  -7.4895792 -17.8583431   0.3279625  -7.2700686 -18.9525394  -0.6329824
 -19.1072788  35.6198082   4.1701875 -20.0765667  35.5775986   3.9774358
 -19.0882778  36.5900803   4.2988091 -19.7577267 -27.2960529  16.3653011
 -19.3411980 -27.4373188  17.2532806 -20.2547951 -26.4703903  16.5245285
 -11.2107191  37.9309540  13.0623665 -11.3132429  36.9435081  13.0981140
 -10.3066902  38.1099739  13.1275921  -6.3626070  40.6078072  23.4387493
  -5.4597306  40.3317413  23.1728306  -6.6241674  39.8550186  23.9727707
 -23.4931393   0.5786366 -21.7964096 -24.1613522   1.2263993 -21.8107090
 -23.6097775  -0.0019247 -21.0697823  -1.3499584  -6.7474008  47.9376793
  -0.7189401  -6.2227583  48.4825096  -2.1757514  -6.2448163  48.1642647
 -14.7148104  25.9580631  -0.5312803 -15.2037258  25.6110821  -1.2410218
 -14.9934673  26.9144115  -0.6039156  -7.2971368  38.8878212 -28.7024879
  -7.2833223  37.9581718 -28.3325424  -6.2673898  38.9580727 -28.8516445
  16.0060711  22.6374245  34.1179848  15.0338717  22.7545776  34.3463821
  15.9815540  23.0171738  33.2086525  -9.1169300 -42.9111404  25.8603573
  -8.3486500 -42.3856049  25.6187096  -9.7030048 -42.1677361  26.1915245
  -0.5436709  33.3403397 -17.3279648   0.1107039  34.0810814 -17.1577530
   0.0155143  32.5720100 -17.3396492   8.4321461 -39.9369965  -7.7327890
   9.0488834 -39.7173424  -7.0093904   8.9708071 -39.5179939  -8.4550152
  21.2342815  11.8510885 -19.1415844  21.0136700  12.4033279 -18.3175964
  20.3258381  11.9009018 -19.5455303  15.4080400  25.8946495  26.1762428
  14.6246605  25.5891724  26.7077618  15.0777655  25.7269669  25.2473087
  -7.4800897 -40.2460976 -10.4976177  -8.4809446 -40.2354164 -10.5511703
  -7.4049096 -39.9884911  -9.5499258  24.2262650 -22.0431919 -13.8942213
  23.7067204 -21.5062923 -14.5554228  24.6865978 -21.2733402 -13.3965931
  18.9813728  37.2141495 -21.1390915  19.2003212  37.9697304 -21.7239990
  19.2003040  37.4979553 -20.2936325 -14.2730103  22.4386120  -9.7454567
 -14.0511961  21.4798393  -9.9318581 -14.5096951  22.8131962 -10.5994778
   7.2487912  20.2338867 -19.3999405   7.4415669  19.8237801 -20.2961063
   6.2974486  20.0038891 -19.3401146 -41.0655518  17.3109627  -1.4043767
 -41.4711113  18.1753559  -1.2327505 -40.0933037  17.5476551  -1.3914891
  40.8418961 -23.1869545   8.7958174  41.5931816 -23.5428677   9.3604774
  40.2390633 -22.9878178   9.5756016  -3.2926755   4.2420931 -52.0502777
  -3.8835166   4.5358162 -52.7849579  -3.4715755   4.9742198 -51.4467354
 -22.0380402 -40.4896507 -17.1874905 -21.5214577 -40.7859459 -16.3896351
 -21.4321690 -39.7187729 -17.5061455  29.4897766 -16.3174381 -18.3076534
  29.0198231 -16.3157921 -19.2237892  29.3026276 -15.4042826 -18.0683060
   7.7953553 -16.4876862  47.9536018   6.8768601 -16.6023693  47.7627563
   7.8867064 -15.5949707  48.3545837  10.5022078  41.6719894  10.9778347
  11.4437313  41.7582245  11.2147923  10.4238405  42.1120872  10.1613522
 -21.6351185 -23.6450748  20.4880981 -21.8902245 -24.4599190  21.0116062
 -22.0331879 -23.0028229  21.1305275  -8.6123190   3.9229374 -25.8412361
  -7.9402943   4.3842072 -26.3814754  -8.3164692   2.9884033 -25.8944607
 -36.7688370  10.7030678  15.4855127 -36.3302612  11.4527254  14.9997864
 -36.8150330  11.0458794  16.4005547 -15.5902042  11.8582144 -51.8704758
 -15.1082726  12.4274025 -51.2322502 -16.3149700  11.5192356 -51.3427086
 -15.7015915 -21.0144119  19.6926270 -15.0394402 -21.4257450  19.0456638
 -16.4776611 -21.2818756  19.1967144  30.6758060 -13.7507038 -13.2506666
  30.8437157 -14.6592722 -13.6122761  31.3879681 -13.2780199 -13.7342453
  32.8213272  -8.5541039  16.8401985  33.7249832  -8.1649523  17.2062874
  32.3474312  -8.5447683  17.6840706  18.7364178  38.6227303 -12.9541178
  19.2907696  38.0390472 -12.3714447  17.8517132  38.3847046 -12.4836712
   1.9521748  39.3644943  -2.5237045   1.4345262  40.0658607  -2.0752807
   2.4067369  39.9306297  -3.1367068 -29.6516552   2.3763394 -17.7739315
 -28.7693253   2.8050861 -17.7297421 -29.3760014   1.4625416 -17.6771603
   8.5708818 -11.8616362 -39.9485397   8.2656698 -11.7051105 -39.0254478
   9.5561190 -11.6374283 -39.7993126  16.4972954 -30.8019276   5.6202507
  15.9059391 -30.5697613   4.9251208  15.9394331 -31.3685265   6.1468883
 -31.4519138  28.5879478   6.0696259 -30.6266346  28.8274155   5.5603666
 -31.1557465  28.8207340   6.9340229 -32.8441734  26.3820648  21.8089695
 -32.6360512  25.8939056  20.9725437 -32.3640175  27.2488976  21.6553326
  29.2029209 -21.8411160  -6.3648810  29.0544662 -21.7599812  -7.3259439
  28.3374138 -22.1246891  -6.0825777  23.5353279  18.6845322 -23.8887386
  24.2013607  18.9969406 -24.5629101  23.7100906  19.3677921 -23.2029114
 -39.6197662  20.4861431  -0.3255942 -40.4594841  20.5230904  -0.8171605
 -39.6769218  19.6384563   0.0846023 -32.4489098  31.0744495  24.9166203
 -32.1884460  31.9638157  24.5312233 -32.9647675  30.6628780  24.1685181
  13.6431093   2.9502754 -25.7743893  13.1975355   2.9148169 -24.8223667
  14.4139462   3.5105324 -25.5103836 -27.5527134 -15.7561846   4.6268721
 -26.8304119 -15.5042467   3.9254813 -28.3348370 -15.5241976   4.0797768
  19.4192448  27.3350620  23.7507000  20.0499210  28.0791683  23.6681442
  19.8536129  26.7749405  24.4160252  24.0675774 -30.7788467   9.0609760
  24.6208267 -30.1504002   9.5643330  23.7485714 -31.4028549   9.7248640
 -41.3896217 -25.0616913  21.5083351 -41.3382149 -24.0991364  21.5519371
 -40.9290390 -25.1974163  20.6552715   3.2809792  -5.5852528 -29.5235062
   2.2578983  -5.5709329 -29.6736660   3.3907933  -4.6357646 -29.9202194
  -9.2679930  20.7688046 -27.0285473  -8.3054152  20.5666752 -27.0938587
  -9.3916817  20.7834110 -26.0835552  15.7799416  49.5105247 -18.1671677
  15.5868912  48.7031784 -17.7314129  14.9904232  50.0125084 -18.0070667
  -1.8871740  15.2269640  41.4996834  -2.2357006  16.0322304  41.0305328
  -1.2588928  14.9229727  40.8109741  43.9579391 -22.4852657  23.7794666
  43.4669342 -22.3140392  22.9601936  43.4110146 -23.2312107  24.1788177
  27.9181480 -20.5389595 -13.8956814  27.7120228 -21.0610542 -14.6881618
  27.0193958 -20.1777134 -13.7123203   9.0250731  48.0481377  -6.9375730
   8.4305334  48.4031029  -6.2893548   9.8304129  47.9441872  -6.3807678
 -12.6291466 -50.3847466  -5.3999643 -13.2544231 -50.5794487  -4.6516862
 -12.0743389 -49.6215172  -4.9479680  37.6912498 -24.1737843  22.7662830
  36.9402695 -24.4205227  23.3182240  37.3290367 -23.9691162  21.8891068
  32.2740135   1.6890324  -4.9657216  32.4451981   2.5833766  -5.3024278
  31.2560577   1.7082946  -5.0365357 -28.6947460 -21.6221104 -11.3077183
 -29.5915527 -21.8754139 -11.5607405 -28.4672852 -20.9443359 -11.9831657
  15.4550838  -9.2754984  16.9712296  15.4846745 -10.2026777  16.6912212
  14.5434046  -9.2334757  17.4024639  33.3120651   7.4825439   4.6083279
  33.6498413   7.7281704   3.6850038  33.4346237   6.4854970   4.5203571
 -31.8573666 -30.3249435   3.2960448 -31.3409042 -31.0555115   2.9462905
 -32.5880661 -30.2764492   2.6552825  25.5211334 -10.6432295  10.6812115
  26.0647964  -9.9186897  11.0574236  25.9135227 -11.4315109  11.0093670
   7.5884585  39.3749619   5.7310090   7.0419083  38.6305199   5.6094780
   8.4569979  39.0060501   6.0175028   1.9361265   2.0089495 -51.4691582
   2.9038889   2.2141109 -51.1907425   2.0524623   2.5191672 -52.3520279
 -19.7776985  26.5736217  15.8317223 -19.4091759  27.3371944  15.2994003
 -19.0561428  26.4141998  16.4396896  31.4928150 -18.7869644  33.1804161
  31.0746918 -19.5556984  33.5972672  31.9879303 -19.2047615  32.4902306
  -9.8795338 -39.3576012 -15.2462349 -10.7025433 -38.8657036 -15.4790754
 -10.2272320 -40.0587845 -14.6879826  16.0762939  29.8863544 -15.9435844
  16.3030205  30.6998882 -16.3599434  15.0796938  29.9462643 -15.9873409
  27.0340824  31.9235725   2.3016951  26.7852612  31.0561886   2.7072997
  27.9086323  31.7464333   1.9338735  18.9392014  42.4395866  -4.4190083
  18.4555645  41.5845146  -4.2766438  18.2965202  43.0312958  -4.8161979
  11.9234190 -12.3435602 -34.1283951  12.2923164 -11.6499968 -33.5280037
  12.1288748 -11.9099751 -35.0058708  10.7806025 -12.3569422  -7.3211179
   9.9042549 -12.5049334  -7.7442822  11.3767700 -12.9354515  -7.9301624
  -3.3149180 -18.3120136 -35.2099571  -2.6293948 -18.8422947 -34.7490578
  -3.7653079 -17.8050652 -34.4576492 -15.1706858  11.1212969  16.1508083
 -14.8775587  10.6101761  16.9399090 -15.1161718  10.4046726  15.4274788
 -17.9753075 -32.0732765  21.3379402 -17.8407345 -33.0389862  21.2426758
 -17.9692230 -31.7755871  20.4133739 -24.9186592   2.2996945 -41.9249763
 -25.0955582   2.0576022 -41.0222359 -25.7760029   2.3032255 -42.3408394
 -41.2758064  -4.2279963 -28.4517803 -40.7428703  -3.7742205 -29.1624126
 -41.2649994  -3.4910619 -27.8057861 -16.4167156   8.7371454  -5.2168694
 -16.9222260   7.9511781  -5.4676695 -16.8311291   8.7936344  -4.3022966
  33.0284805  28.9830780 -23.6006832  33.5921326  28.9340324 -22.8364697
  33.4588661  28.4852409 -24.2563114  -3.2923291  -9.6910076 -33.2334442
  -2.4017169  -9.8901224 -32.7885513  -3.6912603  -9.4257679 -32.3433456
 -21.4850101 -13.0034618  24.0096722 -21.5833549 -13.9114733  24.2261639
 -20.9632263 -12.5928841  24.6827354 -10.1601543 -43.0218315   9.8973780
  -9.2465019 -42.8165741   9.9179592 -10.4929781 -42.6584587  10.7587423
  26.8756599  -2.4852252  -6.5015640  27.6851902  -2.7543805  -6.1151977
  26.7610226  -3.1811657  -7.1897225  -9.6080637 -15.3972902   9.4365177
  -9.4414558 -14.4622717   9.2239523  -8.7687054 -15.5830412   9.9785500
 -21.0877056  14.8936539  39.8360977 -20.6885834  14.3003397  39.2048416
 -21.4424591  15.5324860  39.1971169   5.5969005 -17.4139118  43.6935844
   4.7443681 -17.0530186  43.9670029   5.3374748 -18.0311184  43.0092468
 -10.2485075  36.4339867  15.4547100 -10.5412331  37.3237953  15.2430954
  -9.8896866  36.4688072  16.3507423   2.0289488  45.4044876  -2.0524330
   1.9317920  46.3933907  -2.4431915   1.5488665  44.9739265  -2.7847972
   1.0833851  22.8145981   7.9947944   1.0125704  21.9844341   7.5292239
   0.1716334  23.1715126   8.0637083 -39.3398323 -30.2771225 -16.2371998
 -40.0347366 -30.3879375 -15.4681091 -38.7674751 -29.5673981 -15.7547598
  20.5693092  -9.8273411  46.8860931  19.6478195 -10.1747713  46.8318253
  20.4914837  -9.2093983  47.6501274 -30.2604389  14.7611132   1.9277834
 -29.7623978  15.1315165   1.2209738 -30.5951538  13.9021053   1.6560657
  44.3823357 -24.2589684  -8.9015560  44.3948631 -23.2979565  -8.8806829
  43.5341339 -24.4644775  -9.3288431  23.0955963 -21.2133312  -8.6624804
  22.3093510 -21.1680698  -9.2928686  22.5535297 -20.9157677  -7.8405638
 -13.2002687  39.4309120 -18.9068623 -12.9031506  40.4213867 -18.7899704
 -13.9090881  39.6940117 -19.5403423  15.1199694  39.2416954  15.7171593
  14.7066460  38.9668961  14.9351358  15.3043613  40.1276855  15.5390606
 -20.0718803   8.2372313  48.1664925 -19.3915081   7.5135784  48.2509651
 -20.8146095   7.7445040  48.6231422   7.2357712 -17.6067638  13.2450180
   6.2994056 -17.6681252  13.5500460   7.6451864 -17.8466244  14.0907450
 -24.1709766   8.2442255  23.1856270 -24.9715500   8.0118265  22.7010517
 -23.8170147   8.9627934  22.5398102 -38.3499489  26.7894001  -9.7038403
 -37.8065071  27.3774490  -9.2365561 -37.7799110  26.5050106 -10.4036798
  -1.6178784   3.1226351  47.6754837  -2.0791352   2.9004011  48.5277405
  -0.6815189   3.1283135  47.9052544 -26.1730766  19.4986172  -4.8252120
 -26.5065708  19.6308708  -3.8893280 -25.6138992  18.6698017  -4.7183590
 -17.8634949  -4.5598259 -19.7980175 -17.9536800  -5.5064836 -20.1442337
 -16.9520874  -4.4119978 -20.1394405  -8.5931540  36.5412636  11.3624163
  -7.8565106  35.9192429  11.0932121  -9.1306858  35.9819107  11.9696589
 -36.2570190  24.0840015  26.9107971 -36.8989677  23.6337166  26.2624855
 -35.4092064  23.9351845  26.4555340  38.2071877 -19.3716774   1.8475112
  37.8471413 -20.2565536   1.5886446  38.1187172 -18.9050922   0.9791853
  41.7707710  11.8687811  -6.8571005  40.9916077  11.6358700  -6.3171091
  41.8839531  12.7857809  -6.6146731  31.1690540 -12.8141870  33.4279900
  31.8453102 -12.0296850  33.4770813  30.3783360 -12.3268843  33.2878036
 -12.9507542  23.7345409 -34.7209015 -12.4703035  22.9164677 -34.8542366
 -13.6500311  23.6400585 -35.3967018  -9.5339155 -31.1204357 -31.1561985
 -10.0562429 -30.4372578 -31.6312847  -9.1960506 -31.6968307 -31.8983841
  -0.6756682 -31.5751381  -0.4307502   0.0335463 -31.9822903   0.1155289
  -0.4221065 -31.7839203  -1.3477986  -4.6163096 -33.2019844  -2.5089114
  -3.6972687 -33.5367126  -2.4883566  -5.0162020 -33.8901138  -1.9566355
  20.6206608 -24.2990913  -7.0917063  19.9877186 -23.6537437  -7.4919825
  20.8783016 -23.8322182  -6.3190260 -19.5786552 -35.1205215   3.3712170
 -19.6515484 -35.3787880   4.3323956 -20.4812260 -35.3949966   3.1009097
  25.5620918  20.0202713  18.2462158  24.8096333  19.5544186  17.7863483
  25.1845417  20.1615772  19.0976448 -39.0075722 -12.9588623 -21.4596176
 -39.4866371 -12.5714092 -22.2061901 -38.3131485 -13.4972839 -21.9692059
 -13.4620199   8.8219175 -38.7483635 -13.7411356   8.0903473 -39.3281822
 -14.0027723   9.5492477 -39.1056519   7.6015368   8.1307421 -30.8523369
   8.2561998   7.6200471 -31.4357643   6.8083434   8.0029182 -31.3666573
   9.9868984 -22.3935051 -43.4222794  10.2619553 -21.4918308 -43.2720985
  10.7824421 -22.8332081 -43.0390167 -12.6339331 -47.8780632  -1.7229642
 -13.0340595 -47.9190826  -0.8480992 -12.6687164 -46.9618301  -1.9217864
  14.8267488  32.4861374   3.8648093  14.6069994  31.5315857   3.7935798
  14.7375450  32.7384987   2.9125969  -1.8990119  11.3722401 -42.7585678
  -1.1572435  10.8954086 -43.1818123  -1.5145851  11.5050621 -41.8278008
  21.2578030 -10.1838360  41.2911606  20.4801426 -10.7551756  41.6227226
  20.7360554  -9.3894863  41.0880241 -25.7937546  -4.9258404   9.7529774
 -26.3882465  -4.4174995  10.3852739 -25.3078899  -5.4795961  10.4058962
 -10.3534250  12.4548883 -12.0059719  -9.6866274  11.9573460 -12.5330553
 -10.7297955  11.7709990 -11.4076166 -37.2267799 -34.8056526   9.0720549
 -36.8687325 -35.1533241   9.9269333 -38.1207657 -34.5205917   9.3819637
 -33.8524017  -5.6474447 -28.9555836 -34.4922218  -5.4089022 -28.2471924
 -33.8786392  -6.6189756 -28.9290218 -35.5905762   9.3402891   8.4628172
 -36.3848038   8.8934460   8.8851290 -36.0770264   9.9812241   7.9253526
  37.8108597   2.4106953  -9.0786400  37.3482552   3.2883501  -9.3292046
  37.0142860   1.9260511  -8.7200308 -42.3542252   3.3834059  22.7393227
 -41.7611160   3.7640576  23.3986530 -43.1466141   3.1419549  23.2736778
  20.9765987  24.1511650 -17.0485744  21.0627785  24.7554932 -16.2883835
  21.0766335  23.2980251 -16.6449547   5.1479197  -6.6059923 -10.5051870
   4.1602292  -6.5810542 -10.3964787   5.2159052  -6.3282990 -11.4788771
  -9.8021612  23.2349129  25.8624420  -9.2867842  22.4643631  26.1866665
 -10.4359665  23.2961769  26.5918026  -5.4188352   9.5230284  -3.6448076
  -4.6333151   9.6321917  -3.0969582  -5.0554438   9.1208172  -4.4320574
 -10.0866375 -13.1128702 -24.1769276  -9.8483200 -12.1885653 -23.8383827
 -11.0404215 -12.9179354 -24.4102230  -0.8940949   1.7314354  -2.9072692
  -1.6966168   1.9467493  -3.4283457  -0.1667525   2.1192417  -3.4454045
 -21.8111153  -4.8871808 -24.6631660 -21.7241478  -4.2577205 -25.3778534
 -20.8681145  -5.0444064 -24.4668484  21.9331512  12.2960768 -14.0981026
  21.8279438  11.3529139 -13.7873955  22.8442154  12.1624126 -14.5605631
 -34.9246712 -29.5178642 -10.9210472 -34.4508324 -28.8708191 -10.3854170
 -34.1957970 -30.0980415 -11.3127861  -8.8845854 -17.0178852  16.0206966
  -9.3041325 -17.6411285  15.3452806  -9.5585241 -17.0214386  16.6953735
  12.9937763  12.2257233  -0.8167635  12.4497080  11.4253588  -1.0324067
  13.8406782  11.8440113  -0.8671696  12.7301798  17.3109150  35.7932510
  12.3795595  17.6605453  34.9014664  13.3651190  18.0567989  36.0061874
 -43.5951576 -21.3517456 -14.0421200 -42.8739662 -20.7069168 -14.2017775
 -43.7849693 -21.6485367 -14.9598856  -9.8424330   7.1520686  31.7139969
  -9.1270409   7.2645602  31.0718536 -10.4335241   7.9636407  31.5274029
  11.5783710   5.1531968  43.0924492  10.6333895   4.8973608  42.8717842
  11.9896355   4.2485447  43.1436462 -19.9625149  38.1259613   8.0326109
 -20.4597263  37.6331100   8.6752653 -20.1144314  39.0631218   8.3235998
 -23.9158802 -17.9902191  14.9720793 -24.7483845 -18.0542297  14.3264360
 -23.9752102 -18.9134674  15.3158464  29.0320053 -33.7219315  17.3273010
  29.2400551 -34.3213539  18.0779171  28.0488148 -33.8743210  17.2813549
  38.3974304 -18.7919941 -16.0052185  37.5309372 -18.3183308 -16.2917900
  38.7948914 -18.0624294 -15.4439745  13.7796030 -18.5542221 -14.4452219
  14.5362902 -19.0760517 -14.8118353  13.4876728 -19.1567230 -13.7549162
  -2.2714615   9.2715893  -6.5929961  -2.4516547   9.9846325  -7.2087345
  -1.4857059   8.8645334  -7.0095501  -8.9530935 -21.3217487 -29.2539349
  -8.6245432 -20.4800682 -29.5571728  -8.6315689 -21.3418827 -28.3412018
  -6.6163960 -13.6140785  32.9934769  -7.4254651 -13.2442579  32.5716553
  -6.4370794 -12.9115028  33.6958122  37.2231903  30.0992966   7.8185315
  37.5193977  29.1844788   7.4811983  36.5948029  30.2726135   7.0616736
 -16.6456242 -28.7019043  -7.9589767 -16.5522270 -29.6849289  -7.7084355
 -16.0447884 -28.8143749  -8.8034267  18.5304871  46.8469543  -7.4734941
  19.3363037  47.2430305  -7.8542943  18.5773525  46.0037651  -7.9554286
  -8.7713156  -7.7327309 -11.4238100  -9.4806108  -7.2679472 -11.8109932
  -8.2599516  -7.9752069 -12.1757736  -3.3714557  11.4562531 -10.4694605
  -2.5519006  11.9517698 -10.7585087  -2.8026865  10.6475687 -10.1301165
  43.4634323  22.0213432  20.7252045  43.8749657  21.8247814  21.5622444
  43.3448181  23.0271912  20.7897987  27.1744576   6.0216370 -16.4551067
  27.7635250   5.9056530 -17.2040615  26.3872108   6.4324307 -16.9511166
  13.1468964  30.8522930 -20.4601269  13.0695171  30.6911201 -21.4373188
  12.2789001  31.2625694 -20.3048000 -40.0573120   1.0530087  29.5817986
 -40.4082260   0.6345909  30.4029789 -39.3539200   0.4266163  29.3668938
 -13.0028667  -9.0495424 -40.1795387 -12.0636768  -8.9233704 -40.4410286
 -12.9989300  -8.5810308 -39.2851944 -14.8720274  34.1999588 -15.8158102
 -15.2754860  33.9332466 -14.9128323 -13.9448576  34.4896507 -15.5651751
  32.4337120  -6.2465239  36.7065773  33.3477745  -6.1990027  36.3388596
  32.3445663  -7.1559048  36.8752289  35.8622284  21.4528427 -10.3211069
  35.2307930  21.7212753 -10.9799576  36.6866531  21.8650646 -10.7381172
 -21.1537933  24.3095970 -34.6508293 -21.3364983  24.9171543 -33.8998795
 -20.2312469  24.1091118 -34.4981613   4.5983853  13.8789139 -20.0484047
   4.4104729  13.1093311 -19.4603176   5.3170290  13.4680233 -20.5741367
 -19.4784298  -1.5666980  40.6673584 -19.2497711  -1.6562999  41.6100883
 -20.3799114  -1.1465040  40.8278389  12.1868401  42.0221100  17.9056396
  12.4568071  42.5484810  17.0830116  13.1228523  41.7330971  18.1127701
 -26.1370602  17.4534836  26.9515171 -25.1812553  17.1121712  27.0466805
 -26.4486618  17.2320671  27.8651314   5.6997948  14.2931976  37.3290405
   5.6761842  13.6718073  36.5684052   6.4817777  14.8373222  37.0796432
  -1.3151462  -5.2164907  35.8224297  -1.3761071  -4.6133947  35.0379143
  -2.2183390  -5.5615945  35.8035240 -16.9614029 -22.4470501 -32.4143562
 -16.2737045 -22.0985584 -33.0492249 -16.7116947 -22.0506115 -31.6364269
   4.4511352 -17.6356888   1.1823142   3.9508326 -16.9590111   0.7372764
   4.8943658 -17.9918613   0.3271438  25.6862068 -10.2482967 -19.4893341
  24.8128433  -9.7960415 -19.2733421  26.1646309  -9.5733080 -19.9518528
  15.7143002  50.4140434 -11.5605831  15.6481571  49.8184395 -10.7417860
  14.8920832  50.2129707 -12.0059023 -30.2739239  17.3331032  24.8488102
 -29.4652863  17.7201996  25.2767391 -29.8359375  16.6584663  24.2280922
 -13.9390802  17.2910328  12.8959417 -13.5689363  18.0841446  13.3319397
 -13.4993057  17.3448906  12.0357561  -1.3403831  24.6124897 -38.8384628
  -0.5890532  25.1012039 -38.4791718  -2.1277142  25.0630531 -38.4915619
 -19.7644558  24.6885567 -11.3310003 -20.3980904  25.1066532 -10.6510143
 -20.4877682  24.1822014 -11.8224659 -35.1795540  26.1352997  -5.2962508
 -34.7524834  26.3561630  -6.0792160 -34.9814529  25.1265621  -5.2110190
  12.4512949  -6.9452085  47.7810974  12.7006483  -6.6513343  48.6734772
  11.4217234  -6.7915125  47.9315948  35.3977585 -32.6080589  11.8960009
  34.4615250 -32.8395805  12.1460648  35.3180466 -31.6541386  11.8583422
 -35.6865311 -36.4519920   3.8467236 -35.8616943 -36.5897942   4.8112965
 -36.6028099 -36.3351860   3.5715654 -41.2262802 -25.8163700  12.8918180
 -40.9658012 -24.9163342  12.9658060 -42.0939293 -25.8572845  13.4063873
  32.9459229  29.4069691   5.1944132  32.8450508  28.5871334   5.6578789
  32.9879303  30.0383415   5.9719682   6.4563146 -30.0514278 -30.3581390
   6.3873506 -30.9263401 -29.8824310   7.0535374 -30.2942448 -31.0007610
  31.2207680  -8.6534166  34.3582649  31.9611778  -8.9472361  33.7704277
  31.5851040  -8.9906559  35.2288132  17.8774529  40.1634712 -23.9379807
  16.9755478  39.6983452 -23.8001308  18.4337368  39.3228493 -23.8924465
 -28.8230801  12.1289997 -19.0025749 -28.0121155  11.6328020 -18.7507458
 -28.6758690  12.3485670 -19.9000015 -29.4147949 -14.9050827  30.7628021
 -28.7288189 -15.5858507  30.4904270 -29.3295479 -15.0079412  31.7304630
 -26.7235661  16.4463501  14.3438406 -25.9964828  15.8388357  14.6948795
 -26.1645985  16.9075756  13.6791353 -26.7640362 -15.6090088  16.9783840
 -25.9594460 -16.1946278  17.3053761 -26.7231293 -14.9727983  17.7255268
  27.6113930  24.6237335  19.2812500  28.3171558  25.3333321  19.3847980
  27.7939453  24.3905602  18.3447208 -23.4264450 -32.7061501  20.5251923
 -22.7685127 -33.4482498  20.3569565 -23.0416908 -32.3758278  21.3781128
  13.1596622 -17.6583405 -39.6500511  13.8503733 -17.0553436 -39.2850189
  12.4414845 -17.5531368 -39.0113525 -30.9839401  15.1916609  -3.6428640
 -30.9250298  14.1954441  -3.4462183 -30.9035454  15.5361481  -2.7182870
  33.7045937  25.6242046  -2.6713963  33.2778511  26.4120483  -2.3022482
  34.5922127  25.9675636  -2.8684418  25.0484715  -0.2353496   8.6699677
  24.8488274  -0.5903462   7.7879214  25.9931183  -0.5221776   8.7970600
 -15.8573151  -1.4725772  41.4051514 -15.9029293  -2.4160028  41.6072693
 -16.8378735  -1.2592129  41.3501282 -11.1480274   4.0083480  25.2029724
 -10.2953348   3.6260724  25.0002995 -10.9564219   4.9764633  25.0517387
   9.6410618   7.8910990  44.7466011  10.5477924   8.0380068  45.2017097
   9.1189947   8.4930391  45.3378563 -16.3802013 -38.1135902  -4.9351401
 -15.8904076 -37.7344704  -5.6855297 -15.6033621 -38.1414070  -4.2737589
 -24.3382587  -6.6818962 -29.0106068 -24.2630959  -7.1904979 -29.9081707
 -25.2177181  -6.2837768 -29.2370090  12.6258068  24.1471443  20.6217537
  12.6628561  25.1200447  20.6660252  11.6058798  24.0126724  20.5953369
 -37.0303688  -4.3451452 -35.3035583 -37.3463974  -4.0490098 -36.1520386
 -37.4675484  -3.7595255 -34.6513290   7.2756457 -26.0875530   1.7707349
   7.3890333 -25.8240013   0.8303632   6.3130469 -26.0666313   1.8465900
 -15.4113598  36.9205742  12.2398129 -15.4224796  36.0759659  12.7747707
 -14.6603518  36.6594353  11.6229105 -19.8120880 -12.2560663 -11.7011414
 -19.2280102 -12.7118807 -12.3502693 -19.3837376 -12.7059851 -10.8761120
  19.2548065 -15.3299131   5.8289504  19.3540974 -15.7651987   6.6903448
  20.0067139 -14.7496109   5.8319726  -6.7608562 -20.7799625  -7.4627681
  -5.8127303 -20.7791557  -7.6929851  -6.8216033 -20.0879688  -6.7913260
 -14.0703382  40.2476349 -26.8173351 -14.2810240  40.7281647 -27.6560459
 -13.1520996  39.9059563 -27.0773373  -1.6069318  15.7041874 -30.4264431
  -0.7541236  15.5371876 -30.7857456  -1.3622875  15.7364759 -29.4813309
  -1.3644114  35.3128014 -12.5625057  -0.7924060  35.6268730 -11.8310070
  -1.2666787  34.2941322 -12.4096136 -41.5954323 -20.1144314  15.4463243
 -41.4135857 -19.2308197  15.5388851 -40.8025627 -20.6058922  15.7690010
  38.5226021  30.9468117  -7.4351292  39.3559265  30.7385597  -7.8971510
  38.1901779  30.0431099  -7.1995783  11.4601049 -16.8210888 -23.9521084
  11.1768007 -17.7465038 -23.9647484  10.6078215 -16.3979702 -23.7122421
  -6.7854772  10.5763493  18.8561134  -6.6485763   9.9309721  18.1471691
  -6.8302484  11.4153509  18.3645897  22.8073902 -34.9969406 -16.1235352
  21.8124752 -35.0689278 -16.0703945  22.9313564 -34.7920570 -15.1179581
  -9.6764240  44.0697556  31.0560074  -9.7793617  43.3457146  30.3883171
  -9.2236605  43.5140228  31.7459126 -41.5036926   6.2571106 -23.9143715
 -40.6157913   5.9342556 -24.2381458 -41.9788361   6.1832442 -24.7841415
  -0.0361106 -47.2234840  26.1535397  -0.8535022 -47.6259880  26.0074787
  -0.3129894 -46.2738266  26.2562695  21.0528240  -2.6840286  20.1893635
  21.6480312  -1.9357181  20.2088966  21.3906536  -3.2134724  19.4502926
  35.5130272   3.5463564 -17.8480568  34.7346268   3.5485406 -17.2782440
  35.4863548   4.4733205 -18.1305084 -18.2533531  27.9551659 -38.8033867
 -17.9057636  27.6220570 -37.9107666 -19.1799202  27.6039600 -38.7455254
 -16.0297947 -10.4243383   0.1621015 -16.2732639 -10.3509617   1.1858279
 -15.2770205  -9.7808008   0.1916798  15.4021187  43.4889069   2.4516401
  16.1761570  43.2302895   1.8601059  15.8821325  43.5253792   3.2937667
   1.1564761  33.5761681 -32.8514175   2.0759387  33.3034515 -32.5494308
   0.7920892  33.8258972 -31.9626732  18.1055050  17.8133736  -4.8072071
  17.2897701  17.6436195  -5.2823591  18.5809650  18.2731647  -5.5486913
  -4.3010783  17.5828400 -18.6482525  -4.1603661  16.6286373 -18.5027809
  -4.8221698  17.5548477 -19.4866848  40.0555878 -27.1834908  -7.0653586
  40.4809074 -26.3321552  -7.1823912  40.8932762 -27.7474785  -7.0819464
   7.6435103  39.3068504 -20.3873596   7.4395928  39.8235168 -21.1285152
   7.9638705  38.4394188 -20.6076450 -29.2398415  -8.3700876 -12.9609356
 -29.6016769  -7.9175048 -13.7756805 -28.3574123  -8.6706676 -13.3426714
   3.2617404  23.2373981  28.6587086   3.9617243  23.7394695  28.2287827
   3.6231239  23.2326527  29.5819473  36.9912453   9.6343317 -25.3554935
  37.7856102   9.7883768 -25.9547081  36.6151352   8.8988256 -25.9560013
 -19.3405323  33.6331749 -28.8645382 -18.7774830  33.3666992 -29.6275578
 -18.6037025  33.6538467 -28.1904392  21.3077660 -13.8840771 -14.2419395
  21.4116631 -14.7593718 -14.5211544  22.0478535 -13.7368546 -13.6577129
 -33.5411949 -35.1665306  -5.2715673 -32.7290077 -34.5781593  -5.1934533
 -33.3338203 -35.5131073  -6.1656861  -9.0395060  12.7923088 -34.8343201
  -9.2217112  12.8678951 -35.7710266  -9.7275944  12.2125282 -34.4989471
   4.6976199  35.2606354  27.6012917   4.4808564  34.4217529  28.0300694
   4.0858340  35.3058853  26.8655109  -4.6475940   8.6001654  18.5054951
  -5.1625471   9.3038597  18.8802299  -4.3061109   8.1720591  19.3506641
 -18.6638680  -2.7391264 -40.9038925 -19.3710785  -3.2120676 -41.3941536
 -19.1224747  -2.5839419 -40.0503769 -42.3738861 -16.2145615  -8.1022787
 -41.7656593 -15.5637121  -7.6091948 -41.6872292 -16.5339451  -8.6832247
 -14.3994493  -0.3587204  -9.4205360 -15.2327728  -0.0674604  -9.0479088
 -14.3476639  -1.2491208  -8.9552584  -5.1913819  -4.1503768  32.2495728
  -5.5951772  -4.4563203  33.1431694  -5.3136020  -3.2319884  32.4355698
 -35.9705467 -20.7458763 -26.1573505 -36.0312614 -20.5490322 -27.1578693
 -35.9373970 -21.7111053 -26.2172470  15.2779694  14.0788860 -24.0779610
  15.3206825  14.5624990 -23.1927414  14.4335737  13.6515646 -23.9991989
  -6.8550897 -34.4564323 -12.5634050  -7.8321657 -34.3424568 -12.4518509
  -6.7745252 -35.3443947 -12.3373747 -21.0594158 -30.4880066 -14.2966576
 -21.6336498 -29.9945450 -14.8904390 -20.9750195 -29.8402500 -13.5585060
  -9.3919525 -45.3613091  14.9875250 -10.3239174 -45.5187683  14.8824444
  -9.3028049 -44.9214554  15.8087330 -20.1680851  -1.6348312  -4.9686351
 -19.4591732  -0.9095584  -4.9675117 -19.6143742  -2.3970537  -5.1880407
  37.8893127 -15.5517864   2.4209349  37.0513420 -15.4725561   1.8809639
  38.4313850 -16.1279163   1.8660077 -28.3088589   9.5885372 -31.5993347
 -28.5601387   9.5818462 -30.6569042 -28.6070499  10.4475603 -31.8794899
 -20.7927151 -38.7245331  18.8603115 -21.0708408 -38.7179718  19.7582951
 -21.2287102 -39.4899330  18.4447460  -7.6982913   3.7688210 -46.0941162
  -8.6907854   3.7525082 -46.0661888  -7.5051579   2.8247664 -45.8022881
   0.7668964  15.8079214  13.8460836   1.1420420  16.2957497  14.6393738
  -0.0024871  16.3827858  13.6950407 -26.6216125 -25.7918415 -23.5138168
 -26.0200710 -25.2409706 -22.9435139 -27.1539288 -26.2064056 -22.8291550
   3.6317198  41.1516724  10.7247400   2.9095500  41.1708488  10.0853348
   4.1648855  41.8831978  10.3684340 -18.6523705  30.9967728 -10.7802954
 -19.5708103  30.7792969 -10.5033188 -18.7440853  32.0069542 -10.8138151
 -27.9749374 -40.3324776  16.9971371 -28.8519382 -40.3028870  16.5337601
 -27.4650555 -39.8982124  16.2515697   0.0668306 -35.7369881  17.3796673
  -0.3761011 -34.9600563  17.7577267   0.2036740 -36.3055840  18.2398453
 -20.9430695  28.6380348  13.4699268 -21.4134102  29.0019016  12.6669388
 -20.7471390  27.7354507  13.1499720   9.6991529 -38.4976768 -28.7033920
  10.1190605 -38.7784958 -29.4866619   9.4931498 -39.3351250 -28.2443542
  -7.7968802  28.8217506   0.0681942  -7.3444285  28.9504681  -0.8105034
  -7.4027405  27.9380207   0.2625186  -2.1910458  19.1896267  -8.6729565
  -3.1212585  19.2412605  -8.9537477  -2.2784843  18.7816029  -7.8191719
  -8.1452913 -24.5821285 -13.5831480  -8.8944206 -24.1159668 -13.9653177
  -7.4172244 -23.9823570 -13.8739710  35.1205063 -20.2966671   0.2249293
  34.5112152 -21.0630970   0.0567276  35.7893219 -20.7232494   0.8496507
 -14.5082684  16.2675838 -40.3946342 -14.6387663  17.1104145 -40.9074554
 -13.5272207  16.1765003 -40.3999138  -6.9957166  11.0448875  47.4828796
  -6.4713688  10.2719011  47.8478203  -6.5773787  11.1365108  46.6419754
  -4.7855401 -10.1054678  39.7627029  -5.6387267  -9.8901863  40.1082649
  -4.4834876 -10.7786951  40.4108810 -37.9805031 -12.3807650  25.6382751
 -38.5085182 -13.0376759  25.1460190 -37.1201859 -12.8387356  25.6137505
  28.6147308 -28.8205948  17.0879955  29.0101357 -29.6385670  16.8112316
  29.3358364 -28.5239487  17.7108192   5.0848184   9.8408737  -5.0377679
   4.2518497  10.1663361  -5.5675287   4.6260910   9.6015930  -4.2241530
 -28.3713818  11.6858158 -10.6003838 -28.3270626  10.7026110 -10.5906506
 -27.4639950  11.9445915 -10.3813162 -40.1467133  16.4786205 -14.6253748
 -40.7265282  17.2371883 -14.8154373 -40.0505562  16.1443577 -15.4988785
  11.1835213  16.1094646 -28.4140072  11.4626055  15.7598610 -27.5367928
  10.4127636  15.5662956 -28.5135632  -8.3645134  16.7232571 -40.3188477
  -7.4298196  16.8328800 -40.4577332  -8.4621258  16.7356129 -39.3585854
  29.9998188 -11.5544634  13.1568174  29.2830677 -11.5894346  12.5298405
  29.5286999 -11.4941378  13.9815655 -22.3060818  17.7749538  17.4284992
 -21.3791714  17.5949993  17.3925800 -22.6733322  17.0472679  17.9967918
   2.4307036 -10.6276417 -16.5724277   2.2616661 -11.5513201 -16.2955875
   2.8229842 -10.7724810 -17.5020542  24.5070286  34.8073883  12.0168743
  24.3045006  35.2249908  12.8845968  24.4355354  33.8599701  12.2535591
 -19.6982365 -36.3960228 -11.7406483 -18.9099751 -36.1321030 -12.2374783
 -19.9226589 -35.5289650 -11.3081961 -32.1984482  27.8744984  -0.9071066
 -32.4224358  27.1354618  -1.4686997 -31.9926929  27.4188328  -0.0453079
  32.5851288 -15.3730478  30.2936497  33.2202988 -15.8071718  30.9346561
  32.7543945 -14.4496431  30.6255226  24.0924950 -22.9093075  13.5324812
  23.1631565 -22.6596222  13.8781309  23.8104172 -23.3994732  12.7425203
 -17.5713558  32.9727859 -20.5184593 -17.7351475  33.8375664 -20.9133263
 -17.0637970  33.1801529 -19.7715054  10.0727243  40.6097374  18.6608715
   9.5965261  41.2053909  19.2842636  10.7356825  41.2427330  18.3219452
  27.9437065   1.2771580  30.7846794  27.9775600   0.3527786  31.1946239
  28.9391327   1.3938513  30.8740349 -19.6868458 -28.6043873  -7.7327690
 -18.7319031 -28.5741291  -7.9417162 -20.0488319 -28.8423824  -8.5917044
 -37.2846069  27.9540920  14.6463423 -36.7537498  28.6920090  14.1676378
 -37.3858566  27.3110771  13.9142179   0.5272148 -27.8495350   6.1873689
   0.8262259 -28.0543308   5.2487082   0.4900240 -28.7842274   6.5278783
  23.2469749  24.5868664  10.1481924  22.6776009  24.2754803  10.8623190
  23.2627258  25.5479240  10.2966728 -41.1441917  25.8332214   3.8508377
 -41.3790779  26.5697212   3.2380180 -41.4306526  26.2465134   4.6830206
  19.2745514  30.0064163  14.8065453  18.7483349  30.8311234  14.7814503
  18.6606522  29.3703728  14.4274349  13.6555023  39.2008896   1.2606840
  13.0168791  38.4980011   1.2433574  13.1371841  40.0113297   1.1447425
 -12.2735176 -18.3474178 -25.1857147 -11.6868496 -18.3854828 -24.3845615
 -12.0283432 -17.4260731 -25.4634838  27.1957340 -29.6710567  20.6829643
  26.4902477 -29.2740211  20.1237030  27.0765133 -30.6263008  20.3655968
   1.6398855  43.8625488 -18.2109413   0.9664912  43.5692940 -18.8472633
   2.4644265  43.4130173 -18.4547596 -14.8229618 -26.9820251  10.1562738
 -14.7482557 -27.3339424   9.2220259 -14.4771452 -26.0764008  10.0122938
  37.0932922  -0.7531006  13.2583561  36.6077538  -1.4818645  12.7558289
  37.9391441  -1.2679287  13.4326820 -30.6915035 -17.1116199   0.6507332
 -31.2171555 -17.9500542   0.6196172 -30.8827610 -16.7881508   1.5361340
 -13.2545414 -17.2254219  -6.9744844 -12.8355188 -16.3351345  -7.0284867
 -12.4624605 -17.7458096  -6.8136744   9.9755850  -9.2875624  48.7274513
   9.3061399  -9.4604187  48.0016556   9.9067097  -8.2921276  48.7040138
  43.0116501  -4.8931637  18.2443790  42.9915352  -4.6439495  19.1983356
  42.0884743  -4.7459807  17.9814243  13.7264862 -29.8648891 -39.6085320
  14.2410765 -30.6626434 -39.7504921  14.1161070 -29.5399113 -38.7994270
  29.7704239  -7.0526052   1.5077659  28.9150352  -7.2925315   1.0529202
  29.9257374  -7.8587332   2.0033500  18.9647789  29.2599602 -21.4054699
  18.0347462  29.2074203 -21.0167179  18.9625683  28.4838657 -21.9245911
 -40.8557205 -16.8258705 -23.3578930 -40.5911865 -17.4684429 -24.0638924
 -40.1930580 -16.9855900 -22.6723480 -30.4510555 -31.5363712  17.5993042
 -30.7051792 -32.4415131  17.6264668 -31.2958870 -31.0824471  17.2305603
  10.5748568  -2.8320673 -49.8577728  10.5326509  -2.5194037 -50.7573242
   9.9849014  -2.1199803 -49.4440804 -22.9327679  21.1920776  31.2386436
 -22.7655296  21.9221706  31.8515797 -22.9239140  21.6576576  30.3827152
 -13.8508682  23.7137680 -15.4696703 -13.0088148  23.3839417 -15.3874569
 -13.8959951  24.3322163 -14.7286673  16.9212189 -20.4853897 -43.4630623
  17.4175682 -20.5479927 -42.6609077  17.2318420 -21.2649555 -43.9409637
  24.7970657  -1.5378888  22.3310432  24.2622242  -1.6326077  23.1694698
  25.5618610  -2.1084890  22.4895134   6.7587342 -28.9324455 -21.6545162
   7.0900574 -29.5727100 -22.3024731   6.4060006 -28.2495918 -22.2920952
  -3.0587707 -15.0552425 -44.7489357  -2.5078278 -14.7706194 -44.0053177
  -3.6672926 -14.2435160 -44.7918777  -6.2843909  35.3164558 -12.7421227
  -5.3305788  35.3822327 -13.0270348  -6.5699086  36.1943588 -13.1516523
  -5.8426356   3.6917486   0.3352652  -6.4134231   2.8750751   0.5379224
  -5.3548269   3.3297124  -0.4572147  12.2173958  41.7432213 -17.8421993
  12.9075279  42.4146385 -17.6748810  11.4424944  42.4433823 -17.8357697
   4.8847013   1.3654404  45.0846405   4.4441705   2.2307386  44.9074707
   5.5280008   1.4090530  44.2630196  -3.9700239  39.6404037  22.8352184
  -3.8161125  38.6902885  22.6939659  -3.2941525  39.7799225  23.5492706
  10.6611042  16.8910770  31.7700558   9.7939625  17.2094231  31.5610962
  11.1079159  16.9483471  30.9247093  -0.0864047 -13.3547182 -43.6660690
   0.5394034 -13.0127592 -43.0106926   0.1424506 -12.9114599 -44.5044899
  -6.1377344 -40.9739838  16.3119831  -5.4005532 -41.1145668  15.7305202
  -5.7885447 -40.3957481  17.0115089   6.7929254  17.3176193   9.3625097
   7.3745494  16.9295788  10.0739269   6.5841427  16.4769192   8.8859520
  -7.1519690   9.0694342 -32.6703606  -7.0193586   8.2485657 -32.1806602
  -7.4661837   8.6210394 -33.5296631  40.8531189  27.2946434  13.2033243
  40.8131866  27.9135990  12.4436455  41.5507812  27.6178970  13.7710991
  17.5805206 -21.8294735 -22.1063480  18.2407417 -22.4923401 -22.3464661
  18.2453327 -21.1157227 -21.7696991 -10.6769867  31.9050236  11.2432652
 -11.2595615  31.3069057  10.8105974 -11.1171598  32.7814941  11.0926342
  16.8432178  21.2511215 -33.2681999  17.4656181  20.4844017 -33.2611771
  16.8910656  21.5366249 -34.1617775   6.2916059  17.0679474  27.1891232
   7.1239147  17.5287113  26.9314842   6.0540719  16.6121044  26.3813839
  -4.9287772 -41.7128334 -15.1152258  -4.9908166 -42.4437294 -15.7248678
  -5.6597195 -41.1611328 -15.3773355 -21.1841850  14.6034012 -28.2385998
 -20.7024269  13.8013210 -27.9767666 -22.1248093  14.1947069 -28.3243160
 -18.8053532  18.6078587   1.9285623 -19.3459415  18.7610016   1.1391692
 -19.1843967  19.2943439   2.5244248 -16.1616020 -27.4401741  27.4808445
 -16.2396183 -27.2747021  26.5150642 -16.9651527 -27.9770756  27.6100693
  31.6914139 -13.3670788  -7.8285837  31.8936825 -13.4321756  -8.7532616
  31.3248634 -12.4398232  -7.7623897 -23.9398270 -27.5996571  -3.1757338
 -24.3505898 -28.4333076  -3.2170196 -24.5745411 -27.0191154  -2.7541642
 -14.7451525  36.6327667  -4.6671495 -14.5684309  36.7489662  -5.6416454
 -14.7332029  35.6644516  -4.5705433 -10.3689976  41.4100647   1.3493263
 -10.4846573  41.0545235   0.4325441 -10.4862118  42.3887329   1.1609972
 -19.6956768  23.9059868  10.8748407 -18.8979244  23.4715252  11.2306671
 -19.4317112  24.1438732   9.9496498  18.0746765  46.8728065  12.9216967
  18.1497326  46.3069725  12.1176605  18.9883499  46.8791046  13.1806631
  19.6620159 -10.8799772  10.4052219  20.3956852 -11.1488180  11.0170269
  18.9860382 -11.5278101  10.6504755  12.4923143  15.7523899 -32.1360855
  13.1500177  15.3830767 -32.7575264  12.4001865  15.0212841 -31.5557346
  19.2231884   1.1546658 -17.2691593  20.1576977   1.3858392 -17.0550194
  19.4266262   0.2056351 -17.5462856  25.2723179   7.3628016   4.2573647
  24.9545898   7.4970970   3.3460429  25.0386105   8.2176437   4.6711826
 -21.3084068  -5.5268288 -14.4359217 -21.8131561  -4.8248630 -14.9542599
 -21.9753628  -6.1977539 -14.3046761 -39.8576431 -26.8828678  22.7111416
 -40.4998474 -26.1974068  22.6546230 -39.2224197 -26.7656097  21.9296455
  -1.6676525  12.5458908   4.7450542  -2.5731471  12.2646275   4.7482495
  -1.6385819  13.1215792   5.5163035  -1.0527766 -32.0549049 -31.0556679
  -1.8616405 -32.3730240 -30.6036701  -0.7530437 -32.8919258 -31.4070110
  14.8979092 -28.5898209  11.0549603  14.8907661 -28.8753986  11.9692545
  14.9944601 -27.6178474  11.1902361 -16.3125515  10.4601440 -49.0431519
 -17.1229057  10.3545523 -49.5680542 -16.1223965   9.5255671 -48.8072166
 -36.5426064   2.4999321   7.1973500 -37.3541451   1.8649482   7.2568717
 -35.8403625   1.8137881   7.4191275  10.0169497 -20.5669651  22.8942604
  10.2420216 -20.6432877  21.9633827  10.0358553 -21.4644508  23.2232742
 -18.5920525  -3.8481925  -2.4063535 -18.2701988  -4.7491665  -2.5982780
 -17.9422169  -3.3479059  -2.8820546  22.1412754  31.6245937   9.7373743
  22.0077438  32.4114723   9.1971798  21.5680256  31.8752193  10.5334826
 -28.8072510   2.5608525 -29.4328499 -28.1934834   1.8187824 -29.2554016
 -28.2698822   3.1523964 -29.9647865  27.8292561 -35.9898071  23.9835129
  28.2485027 -36.7482185  24.4369183  27.1501522 -35.7404442  24.6377621
  -6.8967690  34.1033134   1.6307729  -7.7415724  34.5363579   2.0101795
  -7.0678492  34.2620583   0.7139649  43.0498009  27.7460232  -7.9194274
  42.7276077  28.6463223  -8.1541967  43.8075600  27.7044296  -8.5838547
   1.2310615 -34.6610603  23.7646332   2.0780132 -34.4505348  24.1351852
   0.7720811 -33.8072166  23.8748074  14.7777500  -1.3852017 -43.6043663
  14.2266283  -0.9741518 -44.2653618  14.2629271  -1.3098637 -42.8104973
   6.0004706  12.8897915 -22.0619087   6.7763324  13.4150581 -22.3046856
   5.6577806  12.6232204 -22.9621525  15.6669579  19.7851543  21.3691826
  16.4556637  19.2652397  21.3655968  16.0143719  20.6346302  21.7424736
  11.5517368  48.3123474  -8.9661560  11.5310125  49.2310600  -8.6360407
  10.7448387  47.9398384  -8.7497301  -0.0999194  -6.8929176 -13.4360313
   0.8112666  -6.6454153 -13.7173977  -0.1641795  -7.7399111 -13.9565868
   8.3843060  19.7678642  -4.0780125   7.7977557  19.3918800  -3.3632891
   9.2076912  19.4148941  -3.8143430 -13.6605082  32.9403152 -18.5569096
 -13.7680283  31.9193382 -18.4600163 -14.6165495  33.1933632 -18.4672871
   1.7777256  -6.4927511  45.3076096   2.4144614  -6.6987658  44.5319023
   1.1625106  -5.9004273  44.7884178  -1.0442371 -14.6355963 -35.0629158
  -1.7251842 -14.5533133 -34.3836861  -0.3423981 -15.2281046 -34.5964012
  24.6665344   8.0370340  21.6864166  24.0515919   7.2669477  21.6667290
  24.3666897   8.5048618  20.8774662  -0.2166985  28.3140030 -18.8082924
  -0.8920153  28.3152847 -18.1119385   0.6205621  28.3971786 -18.3665028
   7.9578795  -8.9127321  25.0783749   7.9008164  -8.0326767  24.6143818
   8.8339434  -9.2190781  24.7093792   6.0014529  24.4305019 -33.3713455
   5.6798911  24.6873760 -34.3031349   6.9685097  24.5048714 -33.4969521
   9.1463928   0.1965756  35.9611778   8.4875994   0.2158657  35.2304268
   8.7156668   0.5259868  36.7404060   8.4033709  10.6503992 -12.3755312
   8.5468330  11.3072643 -11.6519566   8.1229887   9.8900051 -11.7617216
   4.1206646 -39.0601845 -16.9248066   3.1950908 -38.8295174 -16.6934357
   4.3304505 -38.3705750 -17.6125126 -27.8163071  14.7936172 -18.3433189
 -28.2690907  13.9730911 -18.4591599 -27.1523132  14.7767706 -19.0955544
 -19.3902931 -28.1496620  25.4611359 -19.3767471 -29.0987358  25.7257042
 -19.3613987 -27.7139530  26.3805733  -4.6989222   1.2092843  37.8136826
  -5.0400929   2.1046321  37.7397881  -5.3000784   0.8675680  38.4999847
  28.2461338  -3.5324595   5.9085474  28.2994614  -3.7467082   4.9689641
  27.4925098  -4.0799050   6.2226930  25.2929859  34.3261566  18.4748993
  24.4941292  33.8898506  18.8252468  25.4560528  33.6820793  17.7512455
  -6.4494362  13.8859024  39.3713837  -6.0673862  14.7612047  39.0954971
  -7.2822757  13.8835268  38.9590950  34.5188599 -20.2186127  18.4373226
  34.0012054 -21.0643291  18.4566402  34.8423004 -20.1867447  17.5454979
  37.6825714  -4.8888984  16.6431332  37.4585342  -5.3706489  15.7812033
  36.8265228  -4.8384218  17.0514545  32.0817566 -24.2263832 -24.6288223
  31.5111542 -23.4776325 -24.4738483  32.5822334 -23.9524345 -25.4273205
 -20.9889698 -35.3256226   5.8099165 -21.3880692 -35.7002640   6.6304388
 -21.7188129 -35.5824623   5.1701584   1.8484836 -15.8410511  15.3389082
   1.3404140 -15.8509512  14.4979801   1.8936799 -16.7749748  15.4675941
 -39.1396294  10.5573301   5.2326007 -38.6143379  10.6418076   4.4507194
 -39.4099503  11.5335989   5.3022342 -18.2116184  16.3910847  -2.3669031
 -19.1898823  16.5169048  -2.5920067 -18.1165085  15.4618654  -2.7282109
 -34.7503090  11.5844488  12.1275997 -34.3813438  12.4216824  11.7358303
 -34.9233170  11.8830547  13.0395555 -15.1090393  37.8341789 -29.8375912
 -15.4522724  38.3429604 -29.0944653 -14.6973534  37.1242561 -29.4258690
  20.9585457 -32.0141449   9.5029726  20.4387512 -32.8583336   9.5485468
  20.3659191 -31.4449196   9.9227285  21.1632729  27.9130993  -7.7205944
  21.0403519  28.6579819  -8.3285589  21.4315853  27.2318230  -8.4067173
 -14.5548315  37.7131729 -13.0689983 -13.6978464  37.3518105 -13.4122820
 -15.0909758  37.6641235 -13.9346275   2.7765157 -31.3754025  -1.5070149
   2.8723202 -32.3172073  -1.7040715   1.9518359 -31.2229118  -2.0262520
  43.9070320 -24.3306885   0.6075943  44.3707161 -25.0897655   0.3069960
  44.6282959 -23.6187649   0.5269106  16.3692207  30.0766163  16.9467163
  17.1407852  29.8581638  16.3679848  16.7072697  29.6899872  17.7930279
  -0.8288063  24.6034069 -27.6853867  -1.6442175  25.1134300 -27.7800713
  -1.1069400  23.7224579 -27.4497147 -24.1568661  29.4966679  35.3984337
 -24.7415867  28.7204227  35.4762726 -23.7662373  29.4972725  36.2888222
 -11.6578999  34.0741997   1.4335233 -12.3451490  33.7125320   0.8052354
 -10.8854828  33.6225395   1.0058049  18.3440857  15.6567755  17.3730221
  17.5102806  15.8157434  17.9402771  17.9145107  15.3319836  16.5008926
 -21.8902378 -32.3130112 -12.6492290 -21.6587925 -31.8872261 -13.5108480
 -20.9245262 -32.5908203 -12.3876572   0.1623544 -10.4675159   8.7131376
   0.3709756 -11.0454445   9.5528574  -0.8160706 -10.5983772   8.7697124
  -6.2062120 -42.8248749 -24.4035683  -5.5552268 -42.0639687 -24.4104271
  -6.7038484 -42.5580330 -23.6042385  -5.8658543 -30.4509583 -14.8128014
  -5.9954267 -29.4849606 -15.1057358  -5.2787280 -30.2368221 -14.0289602
 -42.7987328  28.8721561  -1.1171445 -42.2661095  29.6283169  -1.4424014
 -43.6903381  29.2127590  -1.2841289  21.3402557 -21.4423332 -17.8819542
  21.9492855 -21.7236748 -18.5774174  20.9609184 -22.3613472 -17.6333981
  11.9749098  31.0790024  17.7043781  12.5559378  30.2951660  17.7331486
  12.5144539  31.7436409  18.1978245   6.0758362  -8.3004379  35.3520012
   5.7248006  -8.8331442  34.5855026   6.6334229  -7.7009091  34.8885574
 -16.3066654  22.0597687 -15.6951513 -15.5534306  22.6594410 -15.4823790
 -16.3555031  22.2148914 -16.6657810 -25.3449783 -21.0721569  -8.7832108
 -25.7912083 -21.7816257  -9.3072186 -25.4799976 -21.3741989  -7.8729634
  38.6684074   3.5685093  26.2840710  38.4257202   4.5263457  26.5334454
  39.5917244   3.7061427  26.1811581 -26.3055515 -11.5078316  35.1613388
 -25.5739346 -12.0374632  35.5217400 -26.5749855 -11.0762253  36.0085869
  34.8624954 -28.9633389   6.2514281  35.2958755 -28.4078960   5.5972352
  34.6285515 -29.7236633   5.7011037 -39.7453117  20.2562218   7.7340336
 -39.7418098  19.5732002   7.0481143 -40.1995049  20.9978542   7.2173018
  28.5305405 -33.5581741   5.1856084  28.7866917 -32.9858475   5.8654885
  27.8900261 -34.1389008   5.5864100  -6.3714867 -28.0720387  16.0864792
  -5.8114939 -27.9782925  15.2975779  -6.9293780 -27.2701550  16.0936508
  30.8582497  33.9509926 -10.8779173  30.1186581  33.9867630 -11.4750433
  31.3451576  33.1216354 -11.1628723 -13.5740252  12.8325768   4.2051253
 -13.7193375  13.3312330   3.3683133 -13.6290178  13.5269032   4.8435769
 -19.9614048  11.5084496 -17.8261852 -20.2472153  10.8653736 -17.1269608
 -20.5036068  12.2989302 -17.4826126  10.4922647  -0.7351663  -8.2912855
  11.0857525  -1.3484038  -7.8021388   9.6267662  -1.1628149  -7.9264283
   0.2614426  21.3922653 -25.1283245   0.3963009  22.3424454 -24.8508701
  -0.7189146  21.3478394 -25.2111721  23.5561714  -8.7399721  10.8104553
  24.3813496  -9.1558886  11.1953716  23.0392170  -9.6150217  10.6957560
 -28.3796062 -14.6024609   0.7781875 -28.8897209 -15.0647087   0.1432195
 -28.9350357 -14.6595354   1.5974929 -37.7313042  25.9995747  12.7234011
 -36.9755287  25.3726521  12.7488289 -38.2752266  25.6478748  13.4301472
   1.9391822  35.8436584  22.5620899   2.2966018  35.9336700  21.6442070
   0.9955021  35.6245499  22.3096333 -28.2065201  35.7317200   0.1982675
 -28.6297073  36.4288216   0.7772640 -27.3178291  35.7704468   0.4468650
 -32.5458488   0.6188450  22.5272636 -32.4867210   1.4542359  23.0514259
 -32.4670334   0.0074373  23.3046341   8.8381233 -19.5982418  42.2634087
   7.9440598 -19.9594250  42.1174469   9.0744438 -19.9035606  43.1369095
   1.3940530  34.3017387   6.7942147   1.2768636  34.9900284   7.4914374
   2.1025581  33.8213501   7.1767383 -36.3682175  29.1557159 -15.8815269
 -35.4629745  29.4097786 -16.0800209 -36.8438835  29.9922009 -15.8784685
  -9.1345301  21.4053345 -37.2436485  -9.9302778  20.9565125 -36.8404655
  -9.3439102  22.3045845 -37.0217743 -24.1921062   1.2610990   2.5156741
 -23.9757919   0.8263575   3.3992190 -24.6474762   0.4463288   2.1240368
  12.6053915   7.4068685 -24.6428528  13.5415468   7.4666481 -24.9609184
  12.6655598   6.7233734 -23.9851952  25.6393147  16.6882305 -30.7931461
  26.5280437  16.2479801 -30.6954689  25.1157742  15.9118185 -30.5045013
 -21.4719906  33.1742973 -36.3593216 -20.7941303  33.5727081 -35.8200722
 -21.5910339  32.3242149 -35.9919472  17.4483891 -29.8672924 -39.1165009
  16.5758591 -30.2650909 -39.2356758  18.0914612 -30.6112175 -39.0959969
  -9.2658691 -30.2953339  16.7802544  -9.4338131 -29.3862839  17.0386524
  -8.7602997 -30.0968151  15.9611750  27.3773174  19.0776978   7.1849265
  27.7470665  19.8236618   7.6529169  27.8771038  19.1133175   6.3431363
  -4.6810136  29.4561901 -15.8402691  -5.4449620  29.8753815 -16.2441864
  -5.1214509  28.6331310 -15.4980478 -38.2216072   4.3099580  31.5381374
 -37.3470688   4.4385104  31.1284828 -38.3337746   4.9734602  32.1741791
 -42.5854225 -16.3178177  26.2879715 -41.8770065 -15.8068933  26.7498970
 -42.2358665 -17.2248478  26.2729511 -11.9703236  14.7914066  -4.8964791
 -11.7874870  13.8800945  -5.1787858 -12.7861605  14.6180964  -4.3901906
 -43.9740028 -22.4408550 -16.3893509 -44.8501282 -22.7392483 -16.6386395
 -43.4393806 -23.1906586 -16.6691189  -3.0226622  -9.9051991  33.4501305
  -2.7114551 -10.0346413  32.5379982  -3.9789507  -9.8381348  33.2827568
  11.8634233 -23.2299633  21.0159531  12.7711868 -23.4350662  20.7471886
  11.5579128 -24.1541843  21.2561111 -16.8085289 -45.4201469 -12.7258511
 -16.9698372 -46.3617249 -12.7780313 -17.4653072 -45.0802803 -13.3555632
 -40.7943420   2.8772211  12.2651825 -40.5498238   3.1929886  11.3267031
 -41.7276917   2.7567348  12.0827417  -2.8209217 -22.0856075 -23.0265541
  -2.9772270 -21.2434616 -22.6123466  -2.6178546 -21.7731190 -23.9863052
  -0.3916632 -46.6374283 -15.0212994  -1.3033950 -46.9238052 -15.0302515
   0.0384557 -47.5462112 -14.7221804 -40.5308228 -30.9263172  -9.3085461
 -40.0808487 -31.2270241 -10.1341314 -39.9771080 -30.1166000  -9.1583424
  19.2458248 -11.5612583 -12.3202963  18.8018074 -10.7701941 -12.5741119
  19.2194233 -12.0734358 -13.1679239  -5.2549214  43.1598244  16.1230927
  -5.3684974  42.4224586  16.7883282  -5.7792511  42.8634987  15.3797474
 -19.6292915 -34.3218269 -22.8730354 -20.5557938 -33.9830055 -22.6750641
 -19.3731041 -33.5836754 -23.4699917 -21.4832153 -14.5079050  -3.3512032
 -21.0114536 -13.8504105  -3.9253066 -20.7246571 -14.9112511  -2.8294284
 -24.8775558 -44.0240211  -7.8597250 -23.9723206 -44.1861038  -7.9528937
 -24.9018898 -43.1311874  -7.5664716  22.9039917  39.7710762  11.5453329
  23.2241211  40.3904381  10.8425713  22.2099781  39.3026123  10.9911261
  37.5059509 -29.5781345  18.8833923  37.6520729 -29.3357906  17.9489632
  36.9201393 -30.3744411  18.8066578  11.1539888   0.3244379 -34.5076103
  10.5601606   0.9647822 -35.0202675  11.7775478   0.9805098 -34.1379280
  37.3329163  16.7582989  -6.3478036  36.9238853  16.9932747  -7.1931334
  37.3286095  17.5790386  -5.8559179   0.9733913  -3.5276959 -47.2606201
   1.9261156  -3.7249861 -47.2932281   0.9541293  -2.6027353 -47.0115089
 -20.0619335  35.3366776   0.1857881 -20.9500790  34.9848595   0.2473359
 -19.4847755  34.6188164   0.5645114 -31.6377430  18.8103390 -13.0996876
 -31.3825359  17.9103603 -13.3797302 -32.5809402  18.6007996 -12.8872728
  29.6897697   8.8438787 -29.6059265  29.6865463   8.2107801 -30.3775024
  30.4995480   8.5490351 -29.1626720 -13.8455877  18.3185387  -9.4064035
 -14.2339134  17.4006386  -9.5006952 -12.9601603  18.0939770  -9.0867205
 -20.3607559  27.8538170  20.2827606 -20.8331432  27.4935436  19.4757442
 -19.6804829  27.1997929  20.4154873  32.0433121  22.7024422   0.7629304
  32.7257347  23.4242516   0.7353179  31.5483761  22.9629250  -0.0777160
 -37.8320351  13.3290529 -30.7309322 -38.1082001  12.4349728 -30.9756699
 -38.7085762  13.6749735 -30.4628372   2.5852430 -37.4426537 -31.2646656
   1.7980760 -37.8528786 -30.8401108   2.4670100 -36.5039711 -31.0919018
  -6.4258099   0.7383646  29.9569702  -5.6662245   0.2114749  29.6347389
  -6.1670237   1.6528411  29.6159153  32.2449570  21.3125896 -25.6480465
  31.4512615  21.8328114 -25.3242397  32.2074509  21.5618858 -26.5771885
 -24.8454189   0.7601621 -16.1593227 -25.3973465  -0.0440294 -16.4532051
 -25.3816795   1.0335581 -15.3870564  -9.7730579  19.1058807  41.2985725
  -9.2391243  18.4338493  40.8033600 -10.0747080  19.7307224  40.6204987
  17.0669746  24.8128738   5.0118413  17.2667351  25.6979733   4.6387811
  16.4683418  25.0582161   5.7193904  22.5839710  32.9843254 -15.9671154
  21.8423347  32.4557762 -16.3384895  22.5334511  32.6848030 -15.0241098
 -18.7410583 -14.7576265 -17.2151566 -17.8386478 -14.4275866 -16.9316978
 -19.3020821 -14.0089025 -17.0629959  18.6703033 -36.0849724  15.0166264
  17.7157860 -36.3466835  15.1829195  18.8762016 -35.8507080  15.9335003
  20.0198822  38.0926514 -18.7121449  19.7292480  37.4708366 -18.0381584
  20.9337387  37.8603821 -18.8226452  -6.7568111   8.8483038  32.3840179
  -5.8086567   8.5691090  32.7190933  -6.4436688   9.4711180  31.7011318
  19.0805874   6.7089448  36.4920273  18.4139576   6.9354572  35.8296776
  19.0692520   5.7497506  36.4936295  39.0565186  33.6680794  18.4772511
  39.3360558  34.0142441  17.5828304  38.8856659  32.7091293  18.3431072
 -37.0710220  16.2477722 -19.7610168 -36.4063263  15.6784582 -20.2344398
 -37.9032059  15.7167044 -20.0418034  41.8489037  -7.5655112 -14.8292437
  42.1934662  -8.1603565 -15.5271835  40.8894043  -7.6986980 -14.9023027
  18.4565544  -7.6076994  33.4510727  17.7758141  -6.9365630  33.1852531
  17.9039440  -8.2730646  33.9525948   7.8725157  17.0238190  30.9980965
   7.2193437  16.5357552  30.4187202   7.9582224  17.8105869  30.5019665
 -35.2223625  29.6198635  13.7484016 -34.7976913  29.2524757  12.9183207
 -34.4523163  29.5892029  14.3014679  14.4493942   7.0261793  15.6557207
  14.1763439   7.7769337  15.0990791  14.2167521   6.2860565  15.0554667
  32.6255760   4.8597908  22.3736286  32.6664581   4.6284599  23.3241787
  32.6566887   3.9661934  21.9705486  11.9643154   7.1291347 -20.6984730
  12.9066086   7.2754588 -20.8855991  11.7192602   7.9922500 -20.2999001
 -39.3547096  13.0789862  21.7438793 -39.0203514  12.1998186  21.8787899
 -40.2832756  12.9266148  21.4000263  33.3961105 -34.6237755  -8.3525467
  33.9096413 -35.0124359  -9.1438580  33.1352692 -35.4428635  -7.8758101
  26.1980457 -31.4383774  -3.7734821  26.6299801 -32.2086754  -3.4640279
  26.7482815 -31.1357536  -4.5413256 -24.4493027  -2.0248146  -9.6390429
 -23.8966103  -1.4267403  -9.0717201 -25.1610641  -2.1934826  -9.0344210
   6.2614183  -4.1185198 -38.8736534   5.6006775  -4.6319323 -39.3493347
   7.0543704  -4.2476230 -39.3720627   0.1386022 -14.1371746  26.9097462
   0.5749810 -13.4730797  27.4937935  -0.0786476 -14.8604422  27.5161133
  -5.0314856 -19.9802837  14.3145142  -4.6639156 -19.4095745  15.0369596
  -5.0758739 -19.2399082  13.6422806  35.3762856 -19.1877155   8.7728643
  36.0262299 -18.8864460   9.4588194  36.0470009 -19.5968075   8.0930004
 -10.4043636   7.4250102  50.9733276 -10.1356268   7.9124184  51.8001099
 -10.7914801   6.6155443  51.3208961 -26.0592937 -12.3435020  25.9766865
 -25.3085995 -12.2927961  25.3854752 -26.2363777 -11.3817444  26.1494198
  -1.8876680  34.6048164 -27.8847904  -1.2386439  34.5727844 -27.1194344
  -2.0258443  33.6193428 -27.9408646   3.2159245 -26.3714008  14.3050404
   3.6862979 -26.6293583  15.0898218   3.4582162 -25.3894119  14.2287912
 -24.4462585 -41.6281586  14.4539833 -23.9152069 -41.7731171  13.6153908
 -24.1914101 -40.6478081  14.6070175  28.5789566 -14.6176586  19.8060322
  29.3177395 -13.9715977  19.9297886  27.8132076 -14.0119133  19.5776234
  -3.6571221 -23.2192631  27.9582748  -2.8558512 -23.4743958  27.5169277
  -4.0605583 -24.1144962  28.1023808  15.5626993  49.7963982  -0.3813665
  15.6093988  49.5944099  -1.3098831  16.1450558  50.5603218  -0.2932572
   2.2012939   6.2540941  11.0161400   2.1316118   5.3770313  10.6868248
   1.5885060   6.7044744  10.3691225 -42.3001213   2.5132377   5.3860450
 -42.3826637   2.0133629   6.2985916 -42.4996872   3.4259143   5.6556420
  -4.6323271 -45.1606483 -24.3387756  -5.0861473 -44.3079338 -24.3301754
  -5.3668852 -45.8070030 -24.2222385 -36.4190903   1.7949203  10.3769245
 -36.6753082   2.2686107  11.1765327 -37.1965485   1.2356814  10.2537632
  23.6641769 -10.3068323 -43.5698738  23.3704205 -11.0737867 -44.1408653
  23.7835274 -10.7792912 -42.7163010 -33.4099121  -2.3308256 -36.1477318
 -33.9579048  -3.0206769 -36.6565323 -32.5332069  -2.6746457 -36.4402809
  18.0224667 -32.1974182 -20.0496140  18.5278587 -32.4167557 -20.8582821
  17.1039925 -32.2838326 -20.4959259 -23.3821793 -14.5820198  12.4118271
 -24.3514252 -14.6786270  12.5913315 -23.3772030 -13.7584419  11.8696051
 -21.2409649  29.8926163  31.3095455 -21.5121956  28.9767551  31.3310699
 -21.1745548  30.0193424  30.3571110 -22.7871494  34.8695908  28.2935886
 -23.5963249  34.5846214  27.7490387 -22.6159401  34.0216599  28.7496243
  14.6473923 -22.7003460  17.3632259  13.9462547 -23.4193668  17.2479572
  14.2592440 -21.9945602  16.8006878  15.2126112   0.0049959   8.8171349
  14.6538839  -0.2961411   9.5785360  15.8154345  -0.8181349   8.8392458
   5.9620447 -14.9347954 -20.5189247   5.9986830 -14.6398373 -19.5791435
   6.9417343 -14.7437496 -20.7450600   4.0239487 -18.9886723 -15.2953453
   4.3630700 -19.7193794 -14.7850933   3.9305074 -19.4167328 -16.1671867
 -32.5254250 -39.3621292   7.3234463 -32.6669083 -39.4579010   8.3073568
 -33.3723755 -39.3555489   6.9248724  -8.4660292  -7.5311632 -26.7972889
  -8.5827188  -7.5164804 -27.8578663  -7.5266247  -7.7360339 -26.7938538
   3.5113831 -36.3958702 -12.4768887   3.7511294 -35.6741486 -13.1937475
   2.9648764 -37.0115318 -13.0184164  13.6889610  42.0266533  24.4759655
  12.9920797  42.7099495  24.5368996  13.2101440  41.4106483  23.8866310
  -7.0641179 -29.0324898  32.6032143  -6.5498295 -28.6358089  33.3591156
  -7.7870183 -28.3656273  32.5663948 -25.4114017  15.2935038  35.3792992
 -26.2926807  14.8829355  35.5158539 -25.3963261  15.3505239  34.4303322
 -16.0968170  21.8456821 -27.8323135 -15.3015184  21.4160900 -28.1743927
 -16.2498741  22.4724865 -28.5600910   9.6246500 -21.2373981  11.1126842
   8.7404833 -20.9810429  10.7507086  10.1289358 -21.1932335  10.2261620
  21.5284348  16.5007668  -5.1375995  22.1335945  16.4896259  -4.3671055
  22.2007866  16.7274609  -5.8224263 -26.5817699  -2.4469509 -30.4069786
 -26.6484852  -1.5655699 -30.8258953 -27.3229351  -2.3072248 -29.7412491
 -36.1436386  33.3378754  21.5210934 -36.9881706  33.4892273  21.9876003
 -35.6130829  34.1503105  21.7343082  -7.9031887 -26.2528973 -23.8438206
  -7.4854574 -26.6068554 -24.6910839  -8.4213142 -27.0909786 -23.6938763
  36.3515396  -5.9634008  -5.3779221  37.0336418  -6.3742881  -5.9182963
  36.3870049  -6.4069190  -4.5381908  -6.5941758  36.0320549 -33.7257843
  -5.8612494  36.0516663 -34.3718567  -6.0643888  36.0564957 -32.9347191
 -29.9615097 -13.4850168  26.2242165 -29.1738777 -13.3419828  26.8442650
 -29.5349331 -13.4689779  25.3594875 -15.3498888 -42.7399368   6.2764802
 -15.7155342 -43.1140976   7.0567217 -16.1072426 -42.3519325   5.8236938
   4.7249832  22.9231453  31.0982494   3.9205418  22.3295975  31.0477962
   4.3899722  23.5164833  31.8448372 -31.0902576  -9.3267317 -32.1734200
 -31.6053009  -8.6955271 -31.6000996 -30.7323494  -8.6463127 -32.7672997
  25.7677803  -8.7078915  12.9096394  26.2847958  -8.6455231  13.7098398
  25.2354145  -7.8415279  12.8943157  -8.4241314  17.5453930  39.7387123
  -8.1841154  16.6305237  39.8924866  -8.7021189  17.5250835  38.8151894
 -18.3570728  22.6542645 -38.0252228 -17.8906956  23.1664524 -38.7070885
 -18.6634998  21.8860455 -38.4581757 -17.5507069  18.6311779 -13.2848186
 -17.4317513  19.4823990 -12.8500910 -18.0484104  18.1382904 -12.6289349
  44.5330620   3.0482676  24.7459679  43.7110672   3.3727162  24.3175983
  44.5137939   3.5693398  25.5990543 -36.9107819   5.4034142 -18.3354797
 -37.5486984   5.0047092 -17.7013779 -36.5810280   4.5908818 -18.7777576
   2.1904125  -3.6587441  15.7525215   3.0496035  -3.7893543  15.2604942
   2.4716980  -2.8421657  16.3141594  10.8880892   5.5946102  -9.2106199
  11.6168480   5.3065796  -9.7133608  10.1599846   4.9862351  -9.4538574
  -4.9120426 -32.0986862 -23.4141636  -5.6540532 -32.5376129 -23.9504433
  -5.5011086 -31.3675137 -23.0514736  36.9215622  -7.8786883 -16.8189507
  36.2505417  -8.5271921 -16.6079025  36.3135719  -7.1353731 -17.1322041
 -36.0770187  26.8459206   6.9228468 -35.2926483  27.3877525   6.8493609
 -36.7667389  27.4690914   7.1760011 -33.8339691 -23.2049732  14.9497423
 -33.3414917 -22.7967911  15.7288465 -33.0549736 -23.5459061  14.4328556
 -12.2246151  20.6334133  -8.1114731 -11.7754593  21.1173477  -8.8370304
 -12.0572643  19.7034340  -8.4319468 -27.1310883 -12.9352140  33.0061569
 -26.7164383 -12.4179802  33.7146759 -26.4401302 -13.6528549  32.9613037
  28.7722569  23.0118332  -2.3075397  28.3801861  22.8269978  -1.4071151
  29.6934662  23.2391472  -2.0098636 -18.1970139 -21.8692379  18.7925739
 -19.0625839 -21.3939075  18.9609985 -18.1306496 -22.2388268  19.6902027
  -2.8364964  -7.5830860  -7.4014349  -2.9984014  -7.4710822  -8.3932552
  -2.6451507  -8.5474491  -7.3720398  18.9223289   8.0723991 -29.9527988
  19.8505650   8.3482742 -30.0816345  19.0121918   7.1698208 -30.3194942
  29.6623459 -15.2358141   7.3406005  29.7947922 -15.8625517   6.5668011
  29.5349865 -15.8605528   8.0836267  -3.0579093 -23.0586720  19.6602058
  -3.5683277 -23.7866440  19.9774990  -2.2896035 -23.5205784  19.3493443
 -24.4787846 -36.0003166   8.7974939 -24.3451576 -35.2328186   8.2084923
 -25.2039566 -36.5007553   8.3469954  44.1275978  24.1366501  16.4040298
  45.1203651  24.1072159  16.3542576  43.9164238  23.3370781  15.9152746
 -39.3768768  24.6128407  -8.3807859 -40.0279274  25.0871658  -7.8870153
 -38.9342651  25.3889618  -8.8709908   5.9956646 -33.1430321 -30.1147842
   5.4349141 -33.2495270 -29.2861004   6.0612040 -34.0692406 -30.3540192
  26.1983280  25.8572788 -26.3225632  25.9453812  25.4197960 -27.2011967
  25.9582844  25.1034088 -25.7505665  10.4124603 -32.5572548  26.8451672
  11.0297956 -32.3930931  27.6723976   9.8500538 -33.2511978  27.2518444
  -1.3704545  35.4369545 -22.3863525  -0.5766379  35.6398125 -21.9195423
  -1.2844175  34.4899788 -22.4710083 -36.2774963  25.6974106 -11.6364298
 -35.6505661  24.9517212 -11.6987429 -35.7964745  26.4263649 -11.9882774
  18.6638012  -0.6995224  30.4460125  19.1682549   0.0767204  30.0719891
  19.1344528  -0.8222860  31.2543049   8.9374924  10.1488161   9.5703239
   8.4973640   9.4753475  10.0852013   8.6478024   9.9785395   8.6442919
 -17.7736645   6.9519057  45.7741241 -18.5585995   7.3103266  45.2987251
 -18.2455196   6.4837255  46.5061455   3.5845144  -3.6074080   6.0640059
   3.8684633  -3.5365715   5.0713625   3.5115969  -4.6037974   6.0531793
 -36.1939316  34.1628876 -22.7580452 -37.1424294  33.9569168 -22.9790020
 -36.1797867  33.7985649 -21.8297844 -38.3614922  26.9839649 -19.0413895
 -37.9158630  26.7820644 -18.2516403 -39.2822266  26.8167057 -18.8208637
 -15.4384069 -40.8037262  -3.0253503 -15.8846874 -40.3773880  -3.7809055
 -14.9101915 -40.1521225  -2.6419051 -30.0423336  21.8459377 -30.2121983
 -29.8181095  20.8493309 -30.2132320 -29.2209530  22.1251602 -30.7378464
  -2.2412930   5.2464809  21.7467422  -1.5884783   5.6510077  22.4191341
  -2.8312826   4.7851191  22.4005604  15.4014330 -40.6918221   8.3696823
  15.7325239 -40.5871315   9.3059273  16.2245331 -41.1693459   8.0407076
  -2.2296858  -5.3157969  16.1945286  -2.4333553  -5.0731058  17.1171799
  -1.2924320  -5.6044421  16.4337120  26.8655071  15.8208952 -23.7910671
  26.3335323  15.1381454 -24.2370510  26.7828827  16.5269222 -24.3925095
  11.3134632   9.8450775  -0.7175946  10.9970350   9.1853743  -1.3980322
  11.7504635   9.2329874  -0.0718375 -21.9194164   6.6506963  34.0964890
 -21.1758499   6.3063483  34.5665932 -22.1851025   7.3939953  34.6520615
  25.0335732 -24.6997528   1.7588407  25.7475967 -24.8707848   2.4274383
  24.3022461 -25.2750263   1.9869151  38.3391609  28.4098473 -20.2453976
  38.5902252  29.3213921 -20.5944443  38.9697037  27.8325119 -20.6249809
 -38.5405731  33.4080887 -11.2619295 -39.1946144  33.9873352 -10.8313580
 -38.8038864  32.5262413 -10.8836422   6.5554056  11.0657415 -14.5643129
   6.8082480  10.1350870 -14.8124456   7.2215571  11.1736193 -13.8203449
 -14.1971159 -12.6467438  23.5562687 -14.1967697 -13.2697897  24.2765789
 -14.4090366 -11.8326206  24.0224762 -12.3909445  16.0341434  16.0974922
 -12.3874359  15.9120760  17.0571938 -12.1690130  16.9516411  15.9508314
  28.5217934  -6.6354241  31.2535267  28.6210098  -6.0068293  31.9866180
  28.4386749  -5.9179788  30.5541840 -22.6878109  19.0421791 -18.0211487
 -21.7486305  19.2340336 -18.2617760 -22.8062000  18.2480602 -18.6387138
   4.6800685 -22.3719082  -5.8475990   5.0132689 -23.0302658  -5.2222576
   5.4642987 -22.3046055  -6.4485116  16.0604954  30.6452866  -0.9516593
  15.1917334  30.5462437  -0.4566818  15.7751751  30.5030384  -1.8177562
  27.9356022  33.2838135  10.2821636  28.1231823  33.1708221   9.3252983
  27.0870228  32.7878532  10.3628302 -18.1534805  28.5000038   1.0175848
 -19.0106163  28.1225319   1.1193064 -17.9277782  28.2886333   0.0934655
  43.5723267  12.6011915  -9.5672312  42.9987831  12.3200121  -8.8346119
  43.7856064  13.4876223  -9.3127680  24.0764618  14.8458958 -17.7175674
  23.2908916  15.1990042 -18.1080246  23.9956284  13.9107132 -18.0986404
 -40.6341057   1.0046734  26.8690090 -40.8248749   0.0639624  27.0720291
 -40.0850716   1.2277689  27.6588097  10.9356470  22.1298637  12.0402641
  11.6390247  21.5863895  12.5337896  10.6100254  22.6150265  12.8206682
 -18.8357792  -2.1223760  26.8132076 -18.0179272  -1.8729779  27.2057533
 -18.9755154  -1.4779385  26.0974388  25.8439789  -7.0513282   9.7067575
  25.1556835  -7.6313024   9.4321737  26.3387165  -7.4639511  10.4303226
   3.3998902   0.9378405  38.5911674   3.5864727   0.8913922  37.6415024
   2.4279220   0.8832520  38.5504150 -22.5264912  22.2376385 -18.9537468
 -22.6932030  21.4007931 -18.4582386 -21.6863556  22.5105438 -18.4873276
 -13.1338196 -26.9748344 -32.5290642 -13.6066933 -27.4810791 -31.8411770
 -13.8760824 -26.8395290 -33.1572113 -18.0463352   0.7656204  40.2140808
 -18.9176540   0.3523406  40.1145897 -18.0321560   1.3036399  39.4135666
  -6.7499042  -2.7602141  -3.8089812  -5.7898221  -2.9970579  -3.8415306
  -6.6827016  -2.2797031  -2.9336135 -43.9710464 -10.0210190 -15.7078657
 -44.5255394 -10.6800604 -15.2405405 -44.6244698  -9.6137142 -16.2761784
  16.3204918 -22.5446320  43.9766769  16.5180454 -22.6439323  43.0355225
  16.2208080 -23.4689960  44.2129593   8.9172049 -15.5144987  12.6557474
   8.5667286 -15.0518103  11.8672104   8.1409721 -16.1559010  12.7421980
  10.6457796 -39.6264038  17.1958046  11.1244259 -40.1267281  16.5184994
  11.2265053 -39.7928276  17.9580135   4.5118423  16.4507351  17.7656364
   5.3425241  16.0142593  17.9423943   4.1602945  16.6494064  18.6018105
  18.6212730  40.4500694  -8.6243124  17.9121742  40.5461082  -9.2553902
  18.2367153  39.7636719  -8.0238018   0.3436331  16.8987923  31.7878094
   0.0811182  16.0802574  32.3106842   0.1183740  16.6253128  30.8753872
 -28.3995762  32.9751930 -23.6881809 -28.3583927  33.1770630 -24.6455822
 -29.2966862  33.3978539 -23.5116806  13.6248131  17.8233471  -3.8926346
  12.8359289  17.8189068  -4.4064736  13.7077885  18.7941093  -3.7360587
  -9.4292536  42.8775558  19.4941368 -10.3830080  43.1429749  19.4364471
  -9.4279566  42.2220459  20.1930046  25.4216938  -0.9650325   5.5431738
  26.1920433  -0.9043611   4.9285250  25.0536194  -1.8609791   5.4894814
 -39.7470474   2.3001282   4.9752135 -39.3605652   3.1663475   5.1641107
 -40.6835098   2.4076805   5.1936479 -11.9448605 -39.0074921 -25.0936222
 -11.8812981 -38.8604546 -24.1180706 -12.8555365 -38.6816483 -25.2865143
   1.7354281 -40.4312973 -27.8940907   2.3230677 -40.7603035 -28.5418949
   1.2455815 -41.1774979 -27.5513935 -40.2547493   8.9796944   7.2919064
 -40.2903671   9.5648518   8.0865173 -40.0454826   9.6582117   6.6131158
  13.9874001   2.7949283 -38.7370605  13.7750807   2.9826529 -37.7894745
  14.2778187   3.6698501 -39.0159836  -1.8838122   3.8815939 -19.3671608
  -1.1952817   3.4763472 -19.9416351  -1.9588740   3.2948000 -18.6125221
   4.7864714 -42.8355904 -20.4345798   5.6353703 -42.5250168 -20.8369408
   4.1279755 -42.4548416 -21.0184650 -10.4597168 -32.7658501  26.5594807
 -11.0908279 -33.1455879  25.9182949  -9.7031527 -33.3891525  26.4075165
  11.3140001 -28.3978367 -22.9244823  10.5350161 -29.0251007 -23.1360855
  11.3630524 -28.0851631 -23.8837872  -2.5293713 -10.5137453   9.0378914
  -2.5320516  -9.8961039   9.8269596  -2.9499586 -11.3466063   9.3976736
  -0.3945889 -12.1840773  24.9205990  -1.2196950 -11.8211603  24.4378510
  -0.8279250 -12.9932041  25.2948608  -9.7574406 -40.8173904  -3.2536550
  -9.4773331 -40.1372528  -2.6863651 -10.4571123 -41.3124886  -2.8043201
 -21.8801117  14.3585663  35.6123962 -22.6418667  13.8971081  35.9648399
 -21.4893513  14.8717451  36.3526917   9.2718229 -38.9372978  14.6751146
   9.8026085 -39.2948036  13.8885164   9.8207836 -39.2481804  15.4214230
  27.5762234   4.7481570  33.2608948  27.4370403   3.7970815  33.0354767
  26.9968185   5.1839905  32.5824242 -14.3261938 -48.2108116  17.6230335
 -14.9573908 -48.7325592  18.2266464 -13.7830248 -47.8399467  18.3136349
   3.1721416  14.4920616  -6.4670711   3.6426976  15.2701941  -6.8879566
   3.5428545  13.7424593  -7.0214620  39.6631355  -4.2978778  -4.9553251
  39.0421295  -4.2483044  -4.2518392  39.7078476  -3.4219286  -5.2500815
  17.3131142   8.6792240  31.5793171  16.8069286   9.4373016  31.8873844
  16.6032677   8.0897627  31.2181549 -34.8312073  15.3660507   4.6414800
 -35.6329613  15.5161324   4.1324849 -34.3814697  14.7141447   4.0991559
  -2.6956725  -0.4610807  26.6399841  -3.3415313  -0.3774220  27.3422489
  -2.7039230  -1.4338112  26.5134792   3.1953905  34.8636322  10.5084953
   2.6515107  34.6639404  11.2452278   3.2583427  35.8333282  10.4504414
  20.8837318 -15.9394045 -45.1896667  21.1768093 -16.8471260 -45.2376633
  20.3375092 -15.9518261 -46.0222816 -27.3342991   4.2854905 -26.9552155
 -26.7770901   4.0915637 -27.7042065 -26.8142967   4.9316916 -26.4499969
   4.2946410  23.8274994  35.2884407   4.1837883  24.7917538  35.4664116
   3.6170251  23.7168903  34.5795860  22.3027039  13.1479712   4.0077472
  21.8678875  14.0294342   3.8659821  23.0096340  13.3840055   4.6270165
 -22.1872158  14.8823471   8.2116928 -22.8517876  14.1461849   8.0520258
 -22.6759911  15.5117979   7.6548710  -9.8612242  -1.2180291  20.3236256
  -9.1022882  -0.7130746  20.0277596  -9.4326019  -2.0801914  20.4727840
 -34.6423416  -1.9476078 -25.7545090 -34.9413795  -2.8643305 -25.8512974
 -33.7046280  -2.1189563 -25.7892170 -40.2359352  13.7904558 -26.9314919
 -40.3288193  14.6585646 -26.4011974 -41.0011940  13.3000097 -26.5747509
 -36.2666397   3.9185402  38.0882339 -35.5446968   4.3980570  38.5019264
 -35.9718895   2.9683864  38.1292000  -7.4754319   0.1334085 -13.3919821
  -6.7826858   0.2879233 -14.0832396  -8.1164541  -0.2372597 -14.0096197
   7.2301650  -4.3265328  13.7068262   7.0521903  -4.2813163  12.7654219
   7.8361936  -5.0649114  13.8206129  -4.3626390  23.8423691  11.9656544
  -4.4097500  24.2096863  12.8744211  -4.3023958  24.7018757  11.4312372
   5.0043111   6.0636377  28.7050953   4.6253233   5.1957355  29.0217838
   4.7684646   6.0070996  27.7255821  43.8454742 -26.9097214  -4.3612971
  43.6685295 -27.8902302  -4.6159353  43.2726784 -26.5237198  -5.0928164
 -17.3802948 -44.2200661  -6.0936885 -17.5583820 -45.0784874  -6.4531093
 -16.4462376 -44.1089516  -6.3464007   6.6513834   6.2868652  42.6295853
   7.3295002   5.9136992  43.2751694   6.5136638   5.4678583  42.1387062
 -42.4559479  14.6596260  16.6769962 -42.6596642  14.0148449  17.3700809
 -41.5227928  14.4445667  16.5159779 -33.9389000  28.9755859  -9.0947361
 -33.1107521  29.1954784  -8.6177702 -33.5415535  28.7657204 -10.0084534
  -7.1842995  27.5727654  13.8690357  -7.9289360  26.9838753  13.8382673
  -7.6381416  28.3646698  14.3135710  17.0741940  37.0840607   1.2292579
  17.4081478  36.2108154   1.5286794  17.8910046  37.6442604   1.4983469
  41.8520164  29.2531796 -19.3021793  42.7787781  29.3075333 -19.6538486
  41.5103569  30.1605015 -19.6264648  18.5922508  32.4712105  18.2169342
  17.7609596  32.0349159  17.8860321  19.0642204  32.4183693  17.3390007
  -4.2751637   3.9959850 -44.6306572  -4.3476262   3.4028435 -43.8182983
  -3.3115270   4.0310335 -44.7087975  23.9381428  28.9464531 -10.5354176
  24.3352909  29.2553272  -9.6993465  23.0069466  29.2061691 -10.2859039
  37.6285896   9.7958727 -22.7950077  38.5980110   9.8084545 -23.0781155
  37.2550011   9.5069914 -23.6936646   8.8441334 -42.4116478   4.7457395
   8.9871960 -43.0183678   3.9688241   9.6759424 -41.9027443   4.6749024
   1.0224468  25.6818256   5.4834476   0.2100180  25.2391815   5.8064160
   1.6701260  25.3825016   6.2164679  11.3632307  18.4632492  25.0471420
  11.6376839  19.0929184  25.6942158  12.0300589  18.6838131  24.3202076
   7.9755211  21.7215843  20.8296776   7.2503691  21.0286980  20.9386024
   8.4431562  21.7359467  21.6596603  13.2492647 -18.0232792  43.8047142
  13.5514507 -18.2216568  42.9015465  13.0862293 -17.0724106  43.7389565
 -11.3159103   8.6802263 -33.8181763 -10.6875362   7.9773493 -33.6684265
 -12.0380869   8.2991610 -34.3323936  21.8709106 -30.8715973  33.6307144
  21.2329559 -31.6444092  33.5953255  22.6329365 -31.3392410  34.1285553
  39.8684349  -9.0659494 -10.4846249  39.2525597  -8.5589304 -11.1045980
  39.5375900  -9.9998493 -10.6920424  18.3802567  -0.1818617 -26.3468761
  18.8617420   0.2604494 -25.5886211  17.9775524  -0.9573365 -25.9206772
   0.0569260   3.0888212  40.1607437   0.5951020   3.6205208  40.7260818
   0.2601325   2.2013245  40.5929871 -21.7167377   1.9571021  -9.7893429
 -22.5242710   1.6983702 -10.1975737 -21.2640858   2.4257710 -10.4793177
 -10.3818741  -3.5930948  14.8039055 -11.2889242  -3.2429647  14.8996668
 -10.3165941  -3.7018754  13.8096485  -2.3888290  -9.9918928 -13.4475327
  -2.6331522  -9.0861912 -13.2845926  -3.1082664 -10.3086376 -14.0729208
 -41.7692261 -28.7506008  19.8172150 -42.2910957 -28.4762669  20.5943241
 -40.8856468 -28.9460373  20.1957054 -24.4745331  -7.0816083  20.8299046
 -24.3337288  -6.8715887  19.8640938 -23.6679897  -6.7131076  21.2221584
 -38.5868721  15.2956963 -24.4305019 -38.7877197  14.4053583 -24.7661648
 -37.7347336  15.1923103 -23.9641171  -0.6068854 -11.9144583 -29.8939514
  -0.5785545 -12.0758076 -28.9242897   0.1462283 -12.5081596 -30.1480389
  -7.8840728 -19.9563637  15.9311771  -8.0168571 -19.0418682  16.1909084
  -7.9613538 -19.9960060  14.9063168 -38.5937386   1.5064261  14.4477320
 -39.1990967   1.1795006  13.7073383 -39.2397156   1.8120822  15.1046677
  34.1566658 -12.3529263  -2.0520608  34.2547302 -11.4118681  -2.3075826
  34.3794899 -12.1834869  -1.0698110 -26.4986858  30.6617527  17.8311729
 -26.3396492  31.6031361  18.0004826 -27.4422970  30.7380676  17.5055485
  -8.0696440   7.4945621  49.5486526  -7.3833227   7.5947294  50.2588425
  -8.8484964   7.5315585  50.0751686  13.4798326  26.9603863  21.7889614
  12.6509018  27.5136185  21.7856407  14.0459414  27.6885986  21.4146919
  -8.1241846  19.8653908 -31.6735954  -7.8182940  18.9751034 -31.2418919
  -7.9412818  19.6195164 -32.5995140  -9.8876839  10.2683086 -24.4582462
  -9.2387152   9.8968716 -23.7219772 -10.6358671  10.5088158 -23.8526230
  20.8983135  -4.8587098  21.8818817  20.9971886  -3.9817111  21.3687992
  21.7268486  -4.7112303  22.4486828 -12.5639944 -14.2059364  21.0504131
 -12.1489124 -13.4210215  21.5025997 -12.1081047 -14.9014482  21.6665363
  -1.5459352  37.1065025  -0.4729741  -0.9846497  37.9086342  -0.2787721
  -1.7684764  37.3389359  -1.4293197  33.8264580  -8.0311918 -14.7989693
  34.0235176  -7.5457482 -15.6246624  33.3471718  -7.3097363 -14.3530598
   6.1969223 -25.1581879 -36.1251564   5.9935436 -24.4456272 -36.7553902
   6.6176591 -25.8005199 -36.6803169  -8.1721239  16.6921215 -26.3456535
  -8.1686716  16.5270767 -27.3176994  -7.2638540  17.0404816 -26.2301273
  12.3357792 -24.1927490  43.3345985  12.5379047 -24.3051262  44.2567749
  11.3905344 -23.9990807  43.3566132   1.3024424  42.8725014  14.9617558
   0.6853299  42.1525803  15.2747288   1.7242568  43.0652504  15.8130331
   4.0408659  -2.0552106 -40.2570877   4.1065693  -3.0112360 -40.2096138
   4.9775276  -1.8790286 -40.4995346  -2.6575203  40.4973755  29.4134293
  -1.6840388  40.2903252  29.4577789  -3.0308905  39.7528839  29.0432129
 -24.0270596  -0.8267526  29.5036716 -24.4202156  -0.2400524  28.8553295
 -24.4687805  -0.5214007  30.3061829  27.3123989  11.6755142  -4.2986727
  27.0604630  11.0747776  -5.0484204  26.5178833  11.9285526  -3.9500699
  -1.9290180 -12.7688084  46.0282745  -2.2638838 -12.2629070  45.2807312
  -1.0730499 -12.2582474  46.1500816 -24.5939770   9.3144760   8.2562370
 -24.7311821   9.7375946   7.3838010 -25.4243450   8.7570162   8.2236824
  10.0716372  -2.6368613  36.0085831   9.5388126  -1.8078929  36.0847969
   9.9495039  -2.9050143  35.0977364  42.3757172   5.8244548  -2.1407683
  43.3155937   6.1192431  -2.1557937  42.5241127   5.0193839  -2.6102288
 -27.3453064   3.5153310  -0.9792663 -28.2981758   3.6301651  -1.1340582
 -27.2342281   2.5479476  -0.8741495 -25.3163319   7.8078527  38.3991585
 -25.1895847   6.8445864  38.1253929 -24.9163494   8.2568398  37.6228752
   8.5199471 -11.0224524  -3.6775415   7.8236890 -10.8391523  -4.2864060
   9.1465740 -11.5809488  -4.2060409 -21.3223286 -10.9545250 -22.8970661
 -22.1475544 -11.4184704 -22.7451191 -21.2930946 -10.4253235 -22.1057529
  40.4687691 -21.1712551 -16.7898884  40.0598259 -20.7775555 -17.5645485
  39.8271904 -21.8346672 -16.5346737  -9.7589540  30.4458904 -23.8897018
 -10.5770159  30.6106663 -23.3308125  -9.5553503  31.3741932 -24.0675049
  32.3341560  29.5121002 -15.0634079  31.4765987  29.7961006 -14.6755095
  32.2790985  30.0776024 -15.8774071 -23.6918545  -6.9546680 -14.5287313
 -23.1452904  -7.7540960 -14.2969675 -24.4069901  -7.0040069 -13.9327087
 -11.9408455   5.6929808  46.3755226 -11.1800671   6.1419482  46.0378075
 -12.0293760   4.9565010  45.6857948  37.7490883  27.1116581  16.5392151
  37.4388428  27.9858150  16.1964817  38.0472145  26.6455956  15.7088327
 -29.1968555  -8.9713793  -3.9464891 -29.8540478  -9.2434969  -3.2851272
 -29.1793137  -9.6390257  -4.5909243 -24.8572426   3.3531885  12.6187487
 -24.6992569   4.1295352  13.2014151 -25.6456528   3.6814742  12.1418552
  -1.5535498  20.6573315  30.8424053  -1.1792281  20.9739265  31.6989479
  -0.9134785  21.0599403  30.2339020   3.3315084  -5.2168403 -45.1270370
   3.6677237  -4.4830427 -45.7458267   2.4632583  -4.8855166 -44.8463211
  11.1096077  24.9550686  -1.4061601  10.5451374  24.4936790  -2.0634887
  11.1786613  24.2176704  -0.7303722 -25.0023594   2.8237281  15.7070436
 -25.9366417   2.5168126  15.8409491 -24.9960480   3.6503391  16.1342258
  38.4634132   1.0405092 -16.7210083  39.2199402   0.4387300 -16.6423664
  38.6798935   1.3965443 -17.6261044  -5.2560182  13.8882818  24.5627251
  -4.7752609  14.6110363  25.0676613  -6.0618048  13.9012709  25.1178284
 -28.6961403  -6.8869171 -10.8956890 -28.8977604  -7.6215663 -11.5636730
 -28.4593620  -7.4680223 -10.1380081 -24.0942326 -26.2852345  -9.5925188
 -23.9952850 -26.9630146  -8.9125328 -23.8526859 -25.4429283  -9.0884180
 -11.3284693 -13.0497694 -42.3843956 -12.0621319 -13.4501839 -41.9024315
 -10.5211000 -13.4844227 -41.9556351 -28.9170189  13.4852571 -34.7982368
 -28.7543240  13.2248383 -33.8616180 -28.0784225  13.9798136 -34.9947510
  39.5508041   8.4542561 -19.5664463  39.0076752   9.2535839 -19.3551807
  39.3263893   7.9500852 -18.7546043 -11.1808662 -19.1149750   0.6206689
 -10.4311199 -18.4463425   0.5229948 -11.5352516 -19.1564255  -0.2832893
   4.5207229  -9.3079472 -48.8855324   4.7113023  -8.4626350 -49.3846474
   5.4056959  -9.7845297 -49.0480537 -27.6682148  29.5436516 -31.1863174
 -28.5526371  29.4669991 -30.8160744 -27.1798878  28.8960762 -30.6474686
  -0.7015345  32.4871712 -34.6781120   0.0284871  32.4817123 -34.0229797
  -1.3668753  31.9412422 -34.2049599 -24.3185997  38.3734398  -2.2031157
 -23.9244232  38.0801277  -3.0574622 -23.5757923  38.1867790  -1.6167850
  -0.0798574 -24.1106071  21.1952686   0.4765623 -24.9079399  21.3731594
  -0.8663921 -24.3634396  21.7566376  22.2936821  17.6618633 -28.7222824
  21.9087887  17.7516766 -27.8135891  22.9249706  16.9401340 -28.5730610
  -3.4230781   4.0500312 -30.5901184  -3.4301169   4.7244678 -31.3451271
  -3.2494287   4.6987257 -29.8790207 -29.8317261   6.4470177 -38.2090836
 -30.6428261   5.8603721 -38.0982323 -30.3052311   7.3089185 -38.0002327
  27.6570644  21.0439396 -20.7731857  26.8991032  20.4100819 -20.8214493
  27.9163074  20.9588547 -19.8324966 -15.5295982  19.7970009  -2.5480294
 -15.4352121  19.7147503  -3.5579481 -16.4217739  19.5785542  -2.3736050
 -29.6536694  35.7762108  13.0062027 -29.9643250  34.8731918  13.0674477
 -30.3562050  36.2294197  13.5784798 -28.5744324   2.6597395 -36.8817291
 -28.3417835   3.6158919 -36.7540359 -29.4706497   2.6996973 -36.4067650
  20.7332382  21.0749073  25.3451099  20.9064808  20.2078590  25.6572037
  21.5060406  21.5668926  25.7556534 -27.3886414  31.9257107 -15.0243406
 -28.3518028  32.0009193 -15.1356068 -27.3078270  31.3073292 -14.2904119
  25.1097984  41.2046890 -19.1305504  25.7336273  40.9784660 -19.8657703
  24.7957516  40.2835007 -18.9122982  -8.7944136  13.9450111   1.0009192
  -9.6524658  14.1919022   1.4712186  -8.8966866  14.4243174   0.1544510
  37.9833527 -24.2916031  25.8187695  37.4160118 -24.0293865  26.5176678
  37.8491478 -25.2337456  25.7716389 -41.2904396  17.1329575  27.0275440
 -41.0277138  16.8581963  26.1690674 -42.1066246  16.5505524  27.1898270
  38.3936691  -2.1808505  16.0717258  38.0411530  -3.0558860  16.3414783
  37.9842911  -1.6079736  16.7336292  37.7449799 -28.2209358 -10.0333843
  37.0164795 -27.7646599  -9.5848389  38.2988625 -27.5210209 -10.3029604
  -0.3066286 -44.2921028 -16.8719521  -0.1034908 -45.0438347 -16.2824287
   0.5564903 -44.3626518 -17.3633060 -28.5303516 -35.7759743   7.6648889
 -29.3597927 -36.2315063   7.9618077 -28.2602406 -35.2975311   8.5004110
 -21.8933468  30.6795521 -13.4829521 -21.9752522  31.4414215 -12.8672953
 -21.2694111  31.1165009 -14.1450109  15.3075037 -31.3714542  35.2286568
  16.2874107 -31.2307301  35.2988510  15.0419006 -31.2743607  36.1736298
  33.5329514  -1.0642560  38.8725014  33.5648155  -1.9922079  38.4941940
  33.5004425  -0.5242263  38.0790672 -33.3826981   5.2703500  18.9466209
 -32.4068871   5.2348938  18.9333858 -33.4744835   5.7689176  18.0431728
 -18.0840530  17.9588795  47.0996552 -18.4237366  18.5775909  46.3902550
 -18.9439125  17.5694103  47.4093437  23.8200665 -19.8801289 -22.9520607
  23.1958561 -20.3067169 -23.5357742  24.6064816 -20.3930149 -23.1007767
 -10.6568890   4.0492740 -20.7054787 -11.2265453   3.9367931 -19.9066143
 -10.9980974   3.2887487 -21.2297421  36.2410698  15.5828075  22.7590656
  37.0484581  15.7084589  23.3077011  35.8237877  16.4748077  22.6948547
  -3.0906060  44.1785240 -28.0087147  -3.3906219  44.3045273 -28.9025993
  -3.9269154  44.0722198 -27.4802151  -6.5071034   0.6794814  -6.4663463
  -6.3212595   1.0440474  -7.4052367  -5.5862718   0.3764216  -6.3132558
 -19.5701580 -46.5910568  -5.1243911 -20.2160645 -47.3000717  -5.3890042
 -19.9556217 -45.8039627  -5.5804296 -32.6896210   2.1421230  13.0075588
 -32.7707367   2.2629042  12.0202351 -32.3026810   1.2946640  13.0104580
  30.8560143  18.0342293  11.7310324  31.0304184  17.0971432  11.6524191
  29.8910770  18.0142078  11.7741289   4.9882150  -2.1357198  25.1564312
   4.2756910  -1.4761231  25.2135258   4.7599096  -2.6935749  25.9162750
 -12.6005325  38.5791893   6.9261384 -13.0478106  38.7512932   7.7461367
 -11.7110558  38.9298706   7.1877437  38.2470016  10.7510128 -11.0185986
  39.0719566  10.2236586 -10.8768644  38.4708481  11.4112234 -10.3049717
  32.4147758 -11.3129539 -11.2832327  32.1449013 -10.8316603 -12.0970402
  33.3628845 -11.4690275 -11.6054726  -7.7762685  25.5886040   7.8317313
  -7.0068188  25.2345123   7.4024224  -7.6829576  26.5435066   7.5369897
 -33.4860497  -7.9943118  21.1105881 -32.9470253  -8.1558552  20.3189735
 -34.3789558  -7.9721522  20.7455635  -8.7265081 -50.2103691  -7.5803213
  -9.1546049 -50.8482399  -8.1648521  -9.3879271 -49.4726372  -7.5838733
  43.4717674  -6.3542180  11.4341021  44.4053078  -6.5555377  11.5325813
  43.4907913  -5.7323046  10.6675129  11.5955801  -5.6452661 -20.8788357
  11.5857840  -4.6972351 -20.7458496  10.8101254  -5.8296738 -21.4054241
   5.4502611  -6.6552420  48.6525345   5.3415213  -5.7652726  48.1808014
   5.3618817  -7.2427855  47.8664055  -5.3664231  31.0259399   3.7878263
  -6.2271118  30.6757069   3.5956399  -5.5440578  31.8257122   4.2903605
 -21.6566734  30.2815971  17.8002491 -22.2689056  30.5876865  18.5243435
 -21.5719147  29.3503170  18.0865154 -12.0640945  15.2999802  13.3579702
 -12.7799740  15.6156855  12.8248777 -12.3567200  15.4190216  14.3049068
   9.8526421 -43.0374298  15.4063892   8.8819103 -42.9178543  15.2196941
   9.7903709 -43.4718628  16.2719593  30.7646236   1.5748211  40.6178970
  30.6007061   1.8717053  41.5414696  30.1208172   0.8949211  40.4879837
 -29.7557354 -41.4310074 -10.1804914 -29.3883801 -42.1324883 -10.6910019
 -29.0916214 -41.2240829  -9.4956951  10.6299143 -24.0359211   1.9425868
  10.9552460 -24.5626831   1.1773632  11.3385010 -24.2436790   2.5504246
  16.0010700  47.3730049  -4.6075978  16.3833790  47.8630638  -5.3741622
  15.2066813  46.9795570  -5.0277977  30.0300732 -19.3575573 -21.6423473
  29.3847313 -19.4274559 -20.9029217  30.0295620 -20.2750645 -21.9557304
  20.0713654  35.7131233  16.4159927  19.2837963  35.4526405  15.8467865
  19.7508717  36.4393806  16.9016094   3.2385123 -28.5950394 -19.1052589
   2.2870939 -28.8873825 -19.2789001   3.7471251 -29.2476788 -19.6091232
 -41.3465767  21.3309860  -8.9839725 -40.4167099  21.1666126  -8.7438421
 -41.2953453  21.8730564  -9.7375755   6.2915230  27.7801723  19.7646656
   5.9373918  27.8567829  20.7161236   7.2660728  27.6267414  20.0159454
 -20.5945587 -14.3932714  -7.4238892 -20.1789513 -15.2034225  -7.3350883
 -21.4570427 -14.6949282  -7.0058522   3.8560536 -16.0616131 -34.8301201
   3.4852841 -15.3179150 -35.3707352   4.7846732 -15.8476791 -34.8586082
  38.1752243  22.1717224 -16.8903790  38.2911339  23.1110134 -17.0290089
  38.7217102  21.7564297 -17.5343857 -10.0175772  40.6208191  -3.4953294
 -10.4673481  39.7897148  -3.7304773 -10.0869770  41.0460510  -4.4234924
  35.5408134  -4.9491034   1.7591597  35.5099831  -5.4457870   0.9429845
  36.5540428  -4.9017158   1.8940465  -7.2579403   9.9645443 -49.6221008
  -7.3963218   9.9325953 -48.6566391  -7.0174212   9.0320253 -49.7831078
   8.6485147 -33.9126511  -1.7353654   8.8403645 -33.8134880  -2.6896093
   9.5169153 -34.3777924  -1.4897523 -23.2679653 -11.6229162  19.9997654
 -23.9408035 -12.1425838  20.4544048 -23.2590427 -10.8197765  20.5765610
  -9.9153862 -29.6387081  -0.0734826  -9.4687109 -30.2744999  -0.6455145
  -9.3009892 -29.7109737   0.7136791  24.9828777 -22.3070526  27.7095394
  25.6122875 -23.0378838  27.9826374  24.3819332 -22.4088173  28.5299110
   3.0546546  12.8353853  16.4374561   3.7379875  13.4197340  16.0551548
   2.5850368  13.4995470  17.0164852 -23.2397556 -11.5070124 -28.8666382
 -23.1903725 -10.5335579 -28.5071468 -23.5107899 -11.2247028 -29.7572346
  -6.3047805  -1.1686536 -28.9565506  -6.9044337  -0.8203380 -28.2370224
  -6.2908840  -0.4125102 -29.5742493 -16.9669952   4.6578898 -25.6624813
 -16.7252483   5.5055804 -26.0507488 -17.8810139   4.6607203 -25.7963333
 -31.1346169 -36.5549850 -20.2282543 -31.4628181 -36.2905617 -21.1310196
 -32.0960922 -36.8327103 -19.8750820  10.0967197   1.7611935  11.2951508
   9.6069670   2.3016002  11.9094248  10.6277885   1.2018828  11.9555359
  39.9815636  15.5784883  10.4816647  39.2560005  15.1962252  11.0258770
  40.1018486  14.8122396   9.8522139 -24.6882229 -41.0389099  -7.5963254
 -25.1831188 -41.0351830  -8.3918381 -24.2845135 -40.2043419  -7.6052241
  13.4807329  21.4357643 -18.7921677  13.7303400  20.7519970 -18.0758209
  13.7693548  22.2662811 -18.3552685   8.8122921  14.1789036  25.9488220
   9.6101770  14.5165462  26.4144573   9.1812439  14.4260521  25.0232964
 -15.0371685 -14.2976828  18.2150993 -15.6918221 -13.7877760  18.7061691
 -14.2946301 -13.6371250  18.1120968   6.0720472  -2.5888326   1.8520391
   7.0027556  -2.8344052   2.0851588   6.1235862  -2.6108360   0.8803468
  -3.8805103   9.7897358   1.9325533  -3.7690082  10.7551174   2.0272219
  -4.8215556   9.7836523   1.6425740 -35.7290192  -2.8419399  -7.5521932
 -35.7201118  -3.7466898  -7.8693490 -36.3050728  -2.8887935  -6.7743430
   4.9451022 -43.7047119   5.8132439   4.5966864 -44.0881577   4.9453325
   4.6691031 -42.7733192   5.7911139 -27.5651894  -0.6613351 -23.2707386
 -28.0044003  -0.9439942 -24.0837708 -28.3488960  -0.2342267 -22.8254566
  10.9791813   1.6397586  -9.4771900  11.1447058   1.3266377 -10.3610058
  10.6121006   0.7504630  -9.1168919 -15.9257164 -13.8509254   6.5972657
 -15.8517485 -14.7801256   6.7680545 -16.2418480 -13.4933643   7.4603662
  27.3100357 -29.9839554  25.0035210  27.1624832 -30.9704552  25.1289616
  26.4640255 -29.8092918  24.4664631 -35.4218712 -32.4592209  19.2734184
 -35.0205574 -31.8949566  19.9463596 -34.9363976 -32.2400665  18.4792347
   6.4417205 -19.9026928  22.7048264   6.3848796 -20.5493183  21.9804459
   5.8857279 -19.1425190  22.3390598  -7.4925036  20.7915344  23.9519253
  -7.2908812  21.4713802  23.2944107  -8.4416389  20.5797615  23.6930408
 -14.1101589  23.2644367 -18.1135502 -13.8007650  23.4375572 -17.1864662
 -13.7875624  22.2945766 -18.1787548  36.5912170 -18.0069866  13.0918655
  37.2438507 -18.0009117  12.3022003  36.6154251 -17.0550613  13.2382507
 -13.2511578 -23.0599842 -32.5282898 -12.5101719 -23.7469463 -32.5981140
 -13.9428291 -23.6040993 -33.1068344  16.6142559   4.8998604   1.5082421
  15.9007025   4.8148832   0.8025101  17.2873497   5.2894173   0.9259881
   2.0886834   7.4892240 -42.6618996   2.9139466   7.2157440 -43.0562096
   2.1521802   6.9291153 -41.8451500  -1.9077671  -4.3778658   7.0788383
  -2.6650667  -4.0958648   7.6514363  -1.1999648  -3.9214804   7.4688406
 -41.4739380 -23.0264759   6.7571549 -41.3603706 -23.9711208   6.8656068
 -40.9324799 -22.7342281   7.5281529  10.2911797  13.1070662 -31.2763271
   9.3975296  12.7117443 -31.4049702  10.4786129  13.5022097 -32.1633186
  15.9196100 -30.4566326  -2.9432342  16.1189365 -31.2713242  -2.4481850
  15.6059093 -30.8671188  -3.8064888  18.0115604  21.6103649  -4.0046506
  17.7238312  21.1364040  -4.8198471  17.1753654  21.4503765  -3.4412022
  21.3231602 -24.4134693 -25.1880035  20.9891644 -24.9102440 -26.0103073
  21.8926964 -23.7882080 -25.6743336  39.3351936 -18.8318367  -5.8196163
  39.8079453 -19.7183075  -5.7672391  38.5839539 -19.1161289  -6.3929124
 -29.9847126  26.3170052   3.4435775 -29.6375504  27.2295341   3.6485360
 -29.1604462  25.8031349   3.7358460  27.0681133  -5.0084486 -13.5945101
  26.2861538  -5.6199737 -13.6449175  27.7162266  -5.3502374 -14.2583513
   8.5931644 -13.4579296 -47.7660255   9.1514244 -13.6144800 -46.9906120
   8.6600018 -12.5189075 -47.7853813  25.7338467 -13.7662287  30.8269329
  26.5049076 -13.2214832  30.9862099  26.1662254 -14.6222239  31.0647049
  33.5258560 -20.4028797  27.3267479  33.3106461 -20.4684162  26.3281898
  32.6062927 -20.2255478  27.6525440 -15.8145523  21.7533188 -24.9577942
 -16.0045815  21.7763290 -25.9432888 -15.0988235  21.0992699 -24.9483585
  34.0414124 -30.4381638  22.0520630  33.0700455 -30.5218124  22.2784595
  34.3380737 -30.1938000  22.9432068  39.7767715  20.8480663   8.4146700
  38.9714088  20.2895088   8.2534447  40.2917252  20.5499325   7.5728922
  21.7490273  21.0215473 -17.5962677  21.9774532  21.0625267 -16.6405087
  21.3690357  20.1361809 -17.6327915 -20.7443295 -35.1205864  10.7849808
 -19.8397694 -35.3044205  10.4143229 -20.4564819 -34.6827393  11.6183643
  -6.5299335 -48.6867752  -8.3794155  -7.3024268 -49.1798210  -8.0861807
  -7.0491614 -47.9221153  -8.7855320 -32.6967239 -28.9914284  12.7148266
 -33.5621376 -28.9098568  13.2274981 -32.1001434 -29.3195057  13.4150686
 -22.3876266   4.8058405 -38.8308182 -22.2119446   5.6915517 -38.4392471
 -22.2384205   5.1089225 -39.7934952  20.1600285 -19.1408653   2.7623634
  19.5171566 -18.4661140   3.1417103  19.7771702 -19.8992462   3.2834275
  19.3796196 -39.4694977  -4.3396053  19.4356327 -40.4123154  -4.8215442
  20.3146439 -39.2401390  -4.5529823   2.2764192  30.4140987 -13.0748291
   1.7328554  29.6616917 -13.4144230   2.4620459  30.1831169 -12.1516819
  26.1534786 -28.1447659 -27.9146767  25.4169483 -28.5673676 -27.4024429
  26.3905621 -27.4245052 -27.2786961  10.8727636 -16.2032738 -44.9916992
  10.9470148 -15.3392982 -45.4478035  11.8410368 -16.4651184 -44.8941879
   4.3213711  -0.2715777  22.1332874   5.2153840  -0.0743077  21.7776432
   4.5216336  -1.0697991  22.6998367  41.4934769   5.8852973 -18.0744343
  42.2179146   5.3470478 -17.6706676  40.8646927   5.1917696 -18.3060074
 -23.9415226  19.3680458   4.0967164 -24.4575882  18.8007069   4.6629181
 -24.7015553  19.8878269   3.6546564  29.3342876  27.5458908 -16.2104073
  29.9936295  26.8426914 -16.0556831  29.5051727  27.7394104 -17.1674500
 -10.0605059 -49.6915436 -17.3408146  -9.5986052 -50.5284691 -16.9927330
 -10.8875351 -50.1130905 -17.6563492 -27.0370045   6.9510469 -21.6725750
 -27.6795788   7.6350255 -21.8599739 -26.3910408   7.0157981 -22.4110317
  25.0366611   8.1780195  -7.5654573  24.2033176   8.2058048  -6.9804373
  24.7538185   8.8376322  -8.2425156 -27.0528812  13.2868967  12.0167313
 -26.0685329  13.1869164  12.0698042 -27.2795258  12.3096085  12.0258293
 -27.1909695  -8.9701366 -17.7748489 -28.0401669  -8.5324020 -17.9035854
 -27.1292973  -9.5974598 -18.4948215   8.8977947 -11.0849771 -46.6612549
   9.2365561 -10.1829643 -46.6373482   9.1553774 -11.3367672 -45.7253571
  13.6368961 -38.2425613 -26.4993420  13.7686834 -39.2107201 -26.4652100
  12.6853075 -38.2586555 -26.8136024   8.8201180 -14.2082081   4.2177587
   9.5885477 -13.6391630   4.4280863   8.4046183 -13.6380949   3.4892516
 -38.5130043  15.0430660  10.0593624 -38.6027184  14.9260788  11.0036421
 -37.5479164  14.9264984  10.0110149   6.0581293  -8.4490118  -2.5758672
   5.3362761  -7.8117890  -2.3498366   6.7880359  -7.7536068  -2.7494597
  38.1116562 -29.8658886 -13.5798864  38.3351250 -29.0427094 -14.0425577
  38.9112358 -30.4083977 -13.7115355 -11.7104130  32.3385544 -10.4587870
 -12.5839014  31.8469582 -10.5861053 -12.0021830  33.2583885 -10.5257177
   2.4979424  35.4767532  31.3627586   2.6919909  35.7072601  32.3456497
   2.6313374  34.4479103  31.4826183 -23.6838264  10.2186813  -9.7793446
 -23.6860332   9.5456200 -10.4504347 -23.6142712  11.0318604 -10.3411617
 -33.8437653 -19.8511715   2.0126302 -32.9053612 -19.8976345   1.6015851
 -34.2309837 -20.6161385   1.5135716 -26.7878437 -25.5085735 -18.5397396
 -26.7885666 -24.5882587 -18.8640556 -26.6557789 -25.3733120 -17.5805893
 -17.6559563  29.1812859  21.9936981 -18.4752541  29.7606583  21.7420521
 -18.1497250  28.5768929  22.6195507 -23.9866753   5.4025483  20.8534107
 -24.8522301   5.2553048  21.2941284 -24.1761703   6.3064485  20.4666691
  32.6949806  14.2710676  23.6126842  33.0695686  13.8623991  22.8186817
  31.8544369  14.6881161  23.2065983  11.3761358  36.3857841 -21.5429230
  11.6464252  36.6927032 -22.4725780  11.2109585  37.2799492 -21.1470699
 -28.9958992   7.3271790  -7.5826950 -28.2120380   6.7172160  -7.6728358
 -29.0142307   7.4185171  -6.5895519  15.9324284 -28.4945126  36.5254250
  15.0207386 -28.8555279  36.4663429  16.2469120 -28.7482376  35.6568336
 -25.7073555 -17.3224850 -13.0040169 -24.8703442 -16.9163666 -13.4339151
 -25.5067654 -18.2732182 -13.2037897 -36.0779228 -27.2120895   4.6222129
 -36.1391640 -27.6816864   3.8107908 -35.8644409 -26.3259010   4.3229418
  21.3559437   9.3772688  39.1260109  22.2862797   9.6729307  39.3721962
  21.5848465   8.6160345  38.5431442  23.4172478 -25.3407459 -34.2118416
  22.4550114 -25.5605850 -34.1099129  23.7407513 -26.0456009 -33.6471329
  24.0010109  22.8984089  16.1191444  24.7072163  22.3294373  16.4718990
  23.9994030  23.5504494  16.9281082  15.9914446 -25.9764709  11.0544348
  16.0177708 -25.7209892  12.0101061  15.3502636 -25.2409153  10.7305889
  -1.9172488 -28.4258881  -9.5765486  -2.7234645 -28.0510139 -10.0368519
  -1.2474495 -28.2012596 -10.2614775   9.8132601 -31.8263302  23.7653065
  10.0297432 -32.0709915  24.6688747  10.4839716 -31.1809273  23.5154991
  34.3617859 -19.1250095 -30.7703762  33.4778290 -18.9607906 -31.2134285
  34.8772774 -18.5172043 -31.3009720  -3.4118834  10.2528124 -18.9347496
  -2.9044316  10.7450037 -18.2597675  -3.6082947   9.4354954 -18.3929558
   9.9486361 -40.3440666  20.8101768  10.0356884 -39.6110573  21.4727097
  10.2206240 -41.0901718  21.4248962  20.9074764  23.6359043  23.9549084
  20.3944569  23.8068447  24.7589378  21.0961971  22.6946220  24.0472164
  -9.2726889  39.7156181  29.9942608  -8.7480640  40.3565292  30.5538330
  -8.7064247  38.9260178  30.0570126   6.4543357  27.7326565   0.8985876
   6.6318812  28.2920036   0.1108351   5.8054628  28.3731594   1.3678914
 -12.1512852   4.7537689  16.2188416 -11.9132357   5.7178507  16.1627445
 -12.8510418   4.7613339  16.9139595 -11.4463825  40.2241516  11.2884111
 -12.1578312  40.6540070  11.8335018 -11.3722124  39.3840103  11.7574558
  20.3876762 -15.9182692  14.9771738  19.5642014 -16.2363892  15.5531788
  19.8407097 -15.5647392  14.2157297 -19.6053944  -4.6912880 -35.1622314
 -19.9572754  -5.2382684 -35.8680763 -18.9463711  -5.3113351 -34.7835693
  -0.7678552  -3.5847461  -5.6787443   0.1830430  -3.4699216  -5.4584413
  -1.1579417  -2.7342770  -5.3615675 -17.4211617  24.2148819 -35.8557129
 -17.6302567  23.4915333 -36.4719887 -17.8700409  23.8008270 -35.0516853
  23.3813858  28.5218887  14.0899839  23.9749794  27.9697952  13.6340294
  22.5816860  28.4642067  13.4928093 -27.4367638  -8.0372906  35.2277718
 -26.5860119  -8.4908886  35.4100494 -27.9887371  -8.2090130  35.9914970
 -33.4046974   9.6836767  -1.1903114 -33.9066811  10.3634892  -1.6878780
 -33.7411423   9.9072933  -0.3045642  11.1395988 -17.9745674  40.4156799
  10.9526739 -17.1101112  39.9099846  10.7331066 -17.6667938  41.2537308
  -4.2944336 -32.8715515 -12.9205132  -5.2627883 -32.9544106 -12.8434010
  -4.2091746 -31.8814220 -12.6725340   0.9663416 -42.6143837  -8.9519844
   1.4028407 -42.6757660  -8.0662336   1.7551730 -42.4301987  -9.4913301
 -27.3123455   8.3804216 -34.8077736 -27.1323128   8.0364599 -35.7188187
 -26.4272079   8.5649185 -34.4470634 -20.2225437  21.9869041  -7.2560921
 -20.7797260  22.7047901  -6.9093590 -20.6105556  21.9891663  -8.1980953
 -34.5611954  -8.8458910  -2.1158576 -33.6190071  -9.0874882  -2.2455359
 -34.6974373  -9.3110695  -1.2604078  29.6122475 -35.8341255  -8.3292913
  30.4185677 -35.6966972  -8.8954611  29.8419399 -35.4674606  -7.4847083
 -29.5209885 -26.0989914 -26.7378254 -29.7976742 -25.2684975 -27.1683388
 -29.5742779 -26.7135162 -27.4998932  -0.6300794 -36.7220650   3.5523591
  -1.2989564 -35.9874649   3.4474354  -0.1831640 -36.3533821   4.3882914
  17.4742584   1.6110833 -15.3031082  18.0488777   2.2293983 -14.8112707
  18.0340366   1.3843108 -16.1003780  -3.3762553 -18.8108845  10.3481798
  -2.9552953 -18.0318718   9.9826450  -3.8648903 -18.4498444  11.1393070
  11.7525206 -39.2582474 -34.7887802  10.9899950 -38.7004852 -34.7237740
  12.4105139 -38.9296684 -34.1903458  24.0023022  24.1417923  18.5082283
  24.6893539  24.7943630  18.7269478  23.1810341  24.5175819  18.8790741
 -21.4454784  19.4654579  38.4456215 -20.5374794  19.6621609  38.1919823
 -21.3412189  19.2065907  39.3810539  35.2211266   4.3128462 -21.4139805
  34.2742310   4.2748103 -21.4600868  35.4118233   5.0554962 -20.8224487
   0.1274949  -5.8205576  25.5422802   0.8053902  -5.1746044  25.8267365
   0.0209658  -5.6670938  24.6108742   7.8186955 -24.6837616 -34.0073929
   7.1461554 -24.7556000 -34.7567329   7.5681348 -25.4869671 -33.4646339
   5.3088446   2.1654489  -7.5742064   4.8063884   2.1002836  -6.7346606
   6.2439151   2.0869284  -7.2332678  20.3032761 -28.3022614 -18.4459057
  19.7214603 -28.2825699 -19.2558842  20.6719551 -29.2339897 -18.5455208
   6.2444248 -35.6644020 -31.3308697   7.0549564 -36.1657753 -31.1718788
   5.5603633 -36.3517342 -31.0580292  28.9583492  18.3994560   5.2190657
  29.2166824  18.4892998   4.3118353  29.3070202  17.5191383   5.4572539
 -20.1450748   0.0460174   9.0124645 -19.1982937  -0.1411979   8.9025021
 -20.2522068  -0.3560656   9.9191084 -35.1115685 -29.5924091 -17.3534355
 -34.2275848 -29.9268589 -17.5525455 -35.0517960 -28.8106956 -17.9645405
 -32.3507080  -0.6791030  40.2149162 -32.9716911  -0.5462616  41.0483665
 -31.7709274  -1.3596328  40.6721497  -2.4658825  41.9111938  25.0690823
  -2.2066720  41.0714188  25.4941826  -2.7018533  42.4327774  25.8894157
  25.3159142  18.6580639 -28.6610527  25.0178490  17.8042240 -29.0956287
  26.0230656  18.9114952 -29.2885742 -37.5419540  21.3486519   3.8974197
 -38.3445511  21.0343628   4.3672199 -37.9017639  21.5989532   3.0293074
 -16.4325294 -10.0808754   3.0026376 -16.0081177 -10.7356567   3.5655341
 -17.3442860 -10.1945982   3.3609588 -26.0496502   6.8044615 -32.0376701
 -25.5960712   7.2327151 -32.7933464 -26.9508133   6.6796031 -32.3939285
  10.4191656 -25.2047939  41.1313858   9.6830635 -25.0542374  41.7445641
  10.9406328 -24.3997955  41.2925682  -1.4227483  22.6863804 -40.5446892
  -1.9381304  23.1743584 -41.2271347  -1.2561969  23.3549347 -39.8802567
 -32.5853462 -26.9168568  11.0731316 -33.3723221 -27.2335434  10.7167187
 -32.4044342 -27.5404701  11.8203497 -10.1788902  -6.7436786 -32.3071213
 -10.5184708  -6.2931561 -33.0764656  -9.2099466  -6.5256648 -32.3630676
  34.8416634 -33.3112221  15.0664558  34.0313110 -33.8537292  14.9872274
  34.5246315 -32.4420776  15.2711563 -23.4768429   4.9555650  46.6504669
 -23.7713261   5.8518467  46.3313904 -23.9906292   4.3733649  46.1311073
   4.0192156   1.4183818  18.5759354   4.0028210   1.2939177  17.6466827
   4.9840112   1.4791309  18.7574177 -24.9747791 -15.2647076  24.0641174
 -25.1562099 -15.9707594  23.3767586 -25.1697845 -15.7831602  24.8598652
  38.3390961 -27.2199078 -22.2602081  37.8246918 -26.7417507 -21.5597649
  38.5150108 -28.0720825 -21.7867393  -3.6585891 -29.7173595  21.3724327
  -4.3012428 -30.4272003  21.2827530  -3.1235163 -30.0472984  22.0986080
  15.2036047 -17.2168217 -46.7993355  15.3798389 -16.4168987 -47.3134842
  15.8480635 -17.0324078 -46.0553932 -25.2192955  31.1529026 -18.4720592
 -26.1587391  30.9402447 -18.7536755 -25.3075066  32.0449562 -18.1055031
  11.0247736 -36.2240868  -3.7055235  11.7293625 -36.3252792  -4.3750916
  10.2731724 -36.0275230  -4.2972760 -11.8008986  -8.2523565  30.4070587
 -11.4638062  -9.0997705  29.9356899 -12.0010557  -7.6958265  29.6658459
  42.2439880 -27.1394787  16.9867764  42.5732193 -26.5796909  17.7143555
  42.9370575 -27.0362625  16.3142986  31.6672955  -2.7071278  17.0229263
  32.4558983  -2.1572104  16.8226662  31.8825836  -3.5320847  16.5055923
  17.0887356 -20.5859623  -8.7213697  17.3357239 -19.8829975  -8.0843534
  16.6538677 -19.9816170  -9.4470482  -4.1738229  -9.3217764  22.5211849
  -4.8458500  -9.3311005  23.2242012  -3.7621813  -8.4728107  22.5678482
 -12.7712440 -48.6537857   4.9102445 -11.7997980 -48.7870979   5.1700311
 -12.6874485 -48.3387413   4.0388207  22.7570820  12.4807529 -31.7357864
  21.7640266  12.4461212 -32.0378189  22.6639805  11.8432646 -30.9784393
  20.5674820  13.1341190  24.5258865  21.5471096  13.2046585  24.3501740
  20.2230492  13.5914478  23.7363510  30.6107483 -36.0086632  -2.8822765
  29.8398304 -36.3408928  -3.2841861  30.3191929 -35.4409485  -2.1612475
  20.2907734  -9.1161222  14.2376356  21.0435009  -9.6062632  14.3083553
  19.6238213  -9.7425127  14.5347767  14.3058462 -13.8266249  33.6785698
  13.9011755 -14.5758648  34.2016869  14.5224724 -14.3382273  32.8820839
  -5.0806160  18.5923748  37.2526855  -4.2743578  19.1237087  37.3806305
  -5.6899290  19.2876816  36.8524437  30.6828175  22.4001198  26.6507587
  31.2454529  23.0020256  26.0449905  31.3482571  21.8738194  27.0714684
  18.9410286 -33.8971863 -22.1291733  19.5210094 -33.5050888 -22.8495388
  19.6423168 -34.2346687 -21.5138721 -33.4659767 -16.4901295   5.6182098
 -32.5860786 -16.9838257   5.8208132 -33.1202431 -15.5521002   5.4297943
 -12.9780903   4.9758816   0.4366049 -12.1739788   4.8982396  -0.1040184
 -13.1481266   5.9626203   0.3316055 -41.7406693  15.5608530 -23.4400711
 -41.1096497  16.1366272 -22.9440937 -41.2123756  14.6893435 -23.3451424
  37.0945168  15.6260672   4.2957888  37.8425217  16.1141567   3.8675539
  37.5400581  15.0299578   4.9156666 -31.1625004  22.7934132   8.8485680
 -31.2098751  23.8006401   8.9671354 -31.9703083  22.6050625   9.3632650
  25.5028934 -31.7245960   0.1187038  24.6406269 -31.3463631  -0.2176950
  26.1448708 -31.3899651  -0.5288551 -11.0992165  -2.2931466   6.8505421
 -11.2773685  -2.0185323   5.9492612 -11.4396448  -1.5126622   7.4061775
  25.5972977 -28.1485767  -5.6095591  25.4925232 -28.8901272  -6.2376194
  24.8458843 -28.4088249  -4.9656191 -16.1071014  23.4672604  18.3665752
 -16.9120960  23.0451660  17.9697018 -16.4866791  23.4138374  19.3073215
   6.2611365  47.9490509 -15.9815083   5.4551258  48.2201500 -15.5168915
   5.9807982  47.0368500 -16.2708435 -26.3026485   6.6056933  26.5544930
 -25.8877792   7.2789469  27.0776939 -26.7953644   6.1431990  27.2963562
   1.4699100  22.8365288 -32.6373978   2.1888616  23.3217201 -33.1567841
   1.1978965  22.1760311 -33.3327751   7.8841572  23.5079498 -20.6385479
   7.7431259  22.7846508 -21.3006134   7.5485330  23.0533829 -19.8543930
 -38.0130501  28.6725559   4.2723823 -37.8918953  29.1084366   3.4162240
 -37.4294014  27.9249344   4.1868682  38.6198654  25.8291378  14.1802702
  39.4503403  26.3677845  14.0848598  38.8509178  25.1108227  13.5293493
 -40.2310791   4.4864702  14.3544912 -40.1612968   3.8701537  15.1008596
 -40.2061844   3.8060544  13.6359653 -10.8524399  25.3820400 -34.5006790
 -10.4316692  25.0353565 -33.7527466 -11.7187061  24.9082947 -34.5683594
 -17.3014774   6.7258210  17.8696632 -17.1054497   5.8041573  17.5821686
 -17.3031368   7.2303162  17.0409775  -3.1366863  44.9244881  16.6442356
  -3.7294581  44.1898346  16.9158916  -2.3899746  44.6821060  17.1383896
  13.7501106 -25.4309311  -7.7846489  13.1550837 -25.9765549  -8.3344259
  13.8196602 -24.6422215  -8.3776274  24.3083992  18.2601223  14.2482262
  24.5523777  17.5200176  13.6192799  23.7731762  18.7981739  13.7280998
  24.4050140   1.0624905   3.6054378  24.6941795   0.4226006   4.2909384
  23.9461422   0.5136991   2.9852343  10.2490149  17.1346397 -19.6368504
   9.7600441  16.3185749 -19.4842453  10.1668358  17.5940437 -18.7940826
  -8.9784727 -19.6890717 -23.9229870  -8.2011614 -19.3099709 -23.4169579
  -9.5807238 -18.8996487 -23.9055519  16.8798523   4.6881208  37.2845383
  16.7545929   4.1040807  38.0722542  17.1404343   5.5477824  37.6658936
  25.1428108 -19.9130650  -6.3158846  24.8837624 -19.7175617  -5.3736863
  24.6253586 -20.7153320  -6.5113764 -29.9542503  34.7134361  20.8287239
 -29.1428928  34.6447067  20.2172985 -29.4395771  34.8475571  21.6709919
   6.6931605 -38.4227829 -23.6284409   6.5129991 -39.0234642 -24.3830395
   6.1185017 -38.8025436 -22.9378052  15.7425404  28.3415947 -26.0028687
  16.3183346  29.0334606 -25.6519871  14.9602041  28.8318291 -26.3046894
  -3.5800462 -11.0929575 -18.2781963  -3.4802785 -10.6178436 -19.0711536
  -2.9097850 -10.6681576 -17.7154865  11.9515314 -16.1839828  15.4762859
  11.3485737 -15.9113617  16.2054157  11.9820261 -15.3369246  14.9597616
   6.5542045  -7.6168947 -24.7304401   7.2224159  -7.9253697 -24.0626507
   6.7901182  -8.1027164 -25.5161705 -22.0106621 -12.3649445  -1.6558189
 -21.7754688 -13.1074219  -2.2251966 -22.6432018 -12.8252163  -1.0462396
  39.2552261 -22.1202335  19.1613007  39.2959366 -21.8085117  18.2012806
  39.9609604 -21.5914879  19.5877285   8.0106821 -19.8390388   0.3588073
   8.8913755 -20.1469097   0.5786003   7.4059172 -20.5451851   0.7003459
 -11.7143087  19.0026855 -35.3761520 -12.6646538  18.8590851 -35.4249916
 -11.4447985  18.3279018 -34.7440300  21.2401047 -23.3793068 -21.8607121
  20.6111889 -23.0963840 -22.5778484  20.6612148 -23.2308159 -21.0701218
 -12.6308823   7.2340136 -25.3132000 -12.5675726   6.9480391 -24.4094887
 -12.8024893   8.2151079 -25.1980839 -13.9365559  14.8238802 -31.6046429
 -14.6702662  15.0307617 -30.9562111 -13.1691275  15.1398182 -31.1124382
 -14.1778717  40.1533546 -15.4014950 -13.9859152  41.0604897 -15.2889585
 -15.1159277  40.1143227 -15.3928251  21.6019402 -35.8292274  -2.2790596
  20.7371159 -36.1789665  -1.9489905  21.3729115 -35.8077583  -3.2563999
  15.3999634 -21.6795158   3.0598040  14.5725851 -21.7903881   3.5636685
  15.5558567 -22.5053024   2.6950908   8.0181417   8.9203472  21.7044926
   8.6096153   8.2183132  21.3466740   7.1174121   8.6362324  21.2983913
 -17.2913113  35.2421494  -3.0817077 -16.3375721  35.0627174  -3.2445025
 -17.7011547  34.5582619  -3.6066582  40.7497101   7.3552451 -23.3339939
  41.3367653   7.8234978 -22.7167625  39.9661293   7.1747613 -22.7243824
 -15.9426241   6.7934971  20.1489086 -16.4322529   6.7999859  19.3247261
 -15.1617556   7.3267350  19.8807507 -44.0327568  13.9171648   1.8195173
 -43.2407265  13.4053545   2.2132237 -44.6207085  13.1056242   1.6055003
 -15.8144445 -11.7509699  11.5498581 -16.5825577 -11.1592073  11.7395468
 -16.2313137 -12.6133442  11.7918987  27.7921257  39.2658539 -11.6981888
  28.3377590  38.9185753 -12.4650583  26.8899803  39.3286057 -12.0884256
  27.0008869 -32.4384613  25.2108078  27.2097092 -33.3142853  24.7809887
  26.5346012 -32.8363075  26.0025425  15.9914789 -19.8592720  35.9273376
  16.5275555 -19.9784412  36.7373314  15.9328165 -20.8249817  35.6152000
  -1.4098653  -0.8061833  -5.0719056  -1.7594314  -0.8511127  -4.1817951
  -2.1827114  -0.4534517  -5.5677214 -40.6958961 -28.4080219  -3.9055464
 -41.6110954 -28.7556896  -3.8414345 -40.5173073 -28.7078762  -4.8383245
 -21.9748325  32.8307533  13.8273401 -22.0453949  32.2694130  14.6371241
 -21.9568424  32.2416382  13.0892868  19.5258121  47.6170921  17.5754604
  19.9882126  47.6491241  16.7032013  18.6647472  47.1949806  17.2831135
  36.9098053  29.9921055 -13.1530790  36.6800041  30.0599365 -12.2057848
  37.5525551  29.2393188 -13.1095486  36.1887627  33.2364655  -5.6957202
  36.5481262  33.4229355  -4.7741294  35.2218437  33.2909889  -5.5397782
 -11.9202175  21.4477062  11.4017172 -11.2883272  20.7106915  11.6068354
 -11.5392342  22.0789986  12.1092072   3.9974716   8.3513126   9.1232824
   3.9716873   8.1476202   8.1682348   3.5218518   7.6085663   9.4873848
  12.5368643 -28.6639404  42.4583664  12.5939951 -28.4750404  43.4276772
  12.1693897 -29.5946560  42.4771729   3.3644912 -11.0467863 -40.3467560
   3.7804229 -10.3952246 -39.7410851   4.0537267 -11.0039110 -41.0572777
  11.4957428 -11.8719578  21.2000179  10.8586607 -12.5546322  21.1452065
  11.0090456 -11.0961990  21.0400543 -23.2294312   0.4855826   5.3091917
 -23.0384884   1.4219770   5.3649235 -22.4705582   0.1020202   5.8212123
  15.8191967 -17.2527504   8.2404032  15.3809748 -17.7771187   8.9620266
  16.6764107 -17.6189766   8.2282753  39.7595367   9.3081465  -7.9382300
  40.1951714   8.4815435  -8.3263292  40.2132454   9.9959402  -8.4476919
 -33.3273125  11.0233707  -3.6118250 -34.2119408  10.6604223  -3.8065932
 -32.7827682  10.7098932  -4.3365746   9.2031269 -34.6528625  33.1766510
   9.3708162 -34.0961418  32.4101334   8.5167818 -35.3159790  32.8017540
  39.8278503 -10.9037342   8.5535555  39.3732643 -11.5123186   9.1569986
  40.4464569 -10.5261393   9.2636890   4.3893805 -25.8162231   2.7666800
   4.2207098 -25.7212791   3.7177200   4.3438926 -26.8074112   2.6828349
   8.4116240 -19.5365524  35.5288658   8.2852278 -20.3811340  35.0508194
   9.3857250 -19.7051582  35.8006668  22.4113445  22.1588745 -19.8205471
  21.9768505  21.6490841 -19.1539955  23.3067226  22.3727112 -19.4401569
 -29.6639805   2.2793963   1.4051538 -30.3612213   2.9407218   1.5333909
 -29.7999611   1.7335391   2.1894991 -26.7336025 -10.5628290 -20.5408211
 -27.3752441 -10.5931959 -21.2857876 -25.9383507 -10.2369041 -21.0406590
   9.0954943 -37.6577454 -22.7745972   9.1217890 -36.6636314 -22.7976532
   8.2217665 -37.8074684 -23.0933876 -14.7582216  -4.1482244   7.1387982
 -15.6263170  -4.5792990   7.4037595 -14.9965725  -3.5579600   6.4230113
 -24.3746319 -13.8756599 -31.6848011 -24.9216766 -14.2630644 -30.9908352
 -24.4404869 -12.9296579 -31.4817162 -19.7355785  -0.3757346 -45.0779305
 -20.0592651   0.3032715 -44.4798508 -18.9214706  -0.6801119 -44.6326103
  -0.7013355 -35.4691124  14.9179535  -0.2996687 -35.6711159  15.8434000
  -1.4432900 -34.8881874  15.2914858  24.4540653  -4.4954143  41.9011841
  25.2539673  -4.9123297  42.1352730  24.7137604  -4.1468058  40.9883652
   9.4036856  20.0504589  19.2096329  10.3229780  20.1355972  19.3789291
   9.0607376  20.8224602  19.8100967 -30.0564632 -15.2774286 -24.4446125
 -31.0395470 -15.3204451 -24.6231480 -29.9963207 -16.0707760 -23.8226910
  35.5684586 -18.0549183  24.9040051  36.4177551 -18.4439411  25.1876640
  35.8241882 -17.8577728  24.0064487   2.8074458  16.5518837  -8.5444193
   2.6936655  17.5472336  -8.5927391   2.6621108  16.3062515  -9.4806643
 -21.6761951  26.3096676  38.8759766 -20.9582787  26.9883022  38.7750320
 -21.2654457  25.5554867  38.4132042  40.9454041  -4.5472946 -13.6240702
  41.4029999  -4.4103398 -12.7638054  40.9210472  -5.5574594 -13.5862398
   8.2424927   5.2545214  10.5986185   8.0177803   6.1115851  10.9591637
   8.2883081   5.3950062   9.6538324   3.1377728 -18.4037151 -10.1612511
   3.7750428 -18.0134239 -10.7693501   2.3080261 -18.0016499 -10.4556894
  28.9807072 -23.9638481 -13.7474947  28.9730110 -23.2154713 -13.2134571
  28.2868023 -23.7733841 -14.4311209 -39.7581558  25.5344582 -22.8229427
 -38.8103218  25.6604347 -22.8551807 -40.0437355  26.3526077 -22.3655224
  28.5996799  11.0595217  21.9213333  29.2414036  10.4042063  21.6306458
  27.8202991  10.5532074  22.1805115  -3.5535734  29.1512909  35.6677246
  -4.1324048  29.9042301  35.6614990  -3.8692074  28.6903057  36.5045433
  -0.2932479   2.1794407  34.9111481  -0.1140445   2.3756509  35.8223839
  -1.1268513   2.7128482  34.7036781 -20.4266911  12.2389326 -36.6078110
 -19.5702705  12.5049810 -36.2576332 -20.2056828  11.4111862 -37.0428314
  -7.3247557   8.3187160  25.0244980  -7.7297683   8.0000420  25.7762833
  -7.2569966   7.5657644  24.4197083 -41.6867371  -6.1200356  23.9260921
 -42.1846390  -6.0311122  24.7521820 -41.1876068  -6.9188352  24.1310406
 -10.1098089 -28.9294758 -15.2307987 -10.8848047 -28.5853615 -14.7078962
  -9.3796759 -28.5680008 -14.7096968  37.6544342  11.5380039  -6.7395511
  36.8080215  11.0058718  -6.6612034  37.2785797  12.4252024  -6.4167590
  15.5341129  -2.8237209  18.4500599  16.1759853  -3.2665644  17.9161282
  14.7149401  -3.1092193  17.9388790  37.1557083  23.7630615   1.9392790
  37.8721313  24.3188820   2.2058425  36.3371735  24.1506348   2.2624996
  26.1074238 -22.1514359 -32.1553917  25.2004166 -22.1763134 -32.5935555
  25.9204178 -22.6999340 -31.3810921   4.2839789  22.3320637  -1.4432296
   3.3640642  21.9309711  -1.3859223   4.0418077  23.1243401  -1.9249281
  20.8662186   6.0659213  19.3043842  21.0254974   5.1483436  18.9816475
  20.2021313   6.3631077  18.6016598 -17.9072170   1.5604165  -7.3817081
 -17.3905258   0.7541308  -7.6883259 -18.7677746   1.1011019  -7.1653442
 -12.7480249   5.8930821  18.8541965 -11.9639425   6.1502318  19.4680882
 -13.2916775   6.6949210  19.1189041 -36.3083000  -5.6497817  -8.2832756
 -36.8174362  -5.9709444  -7.5038099 -35.5326881  -6.2457147  -8.1777649
  -5.2473660  34.5271759 -15.3734875  -5.2622871  35.4956245 -15.2425251
  -4.5399113  34.3175850 -14.7695522 -27.9659157 -12.2359838 -14.5610971
 -27.7619228 -13.0850725 -14.0772829 -28.5428448 -12.4959507 -15.2416744
  22.6408691 -31.4119701 -21.4345245  22.4397640 -32.1771317 -20.8846130
  21.8685455 -31.2186947 -21.9657173 -24.3415298  -2.8858008  40.7330170
 -24.1878433  -3.8023703  40.4826508 -24.0815392  -2.4324746  39.9551239
  17.6884422  -7.1311960 -36.5565186  17.2060432  -7.7615705 -37.0685997
  16.9020233  -6.7102799 -36.1601143  25.6275883  27.3605137  -4.2900977
  26.1722317  26.8555565  -3.7405398  24.7177181  27.1149540  -3.8684552
  42.9224586  14.2448149 -23.0055389  43.5536079  14.2173443 -23.7460918
  42.2530861  13.6363926 -23.3187962  30.5878391  31.9509964  -2.6108813
  29.8221607  32.2638168  -2.1140053  30.2011871  31.2454720  -3.1790891
  22.2329578 -16.9867897  16.6884441  21.7061157 -16.7210884  15.9283094
  21.5274372 -17.4615269  17.2172775  39.9577026  30.7320843   3.9341695
  39.3530045  31.4362698   3.7937562  39.4529610  29.9289246   3.8034508
   0.2909579  -5.5838366  49.6540794   0.2928419  -4.9026880  50.3034058
   1.0446872  -6.1352358  49.9684410  23.2142715  28.5267773 -18.6376095
  22.9705048  28.3803520 -17.7353077  22.4934845  29.0881405 -18.9614220
 -32.0577698  -4.6416593  32.5350113 -33.0545959  -4.5203567  32.5415306
 -31.8955421  -5.1429391  33.3955879   0.8357048 -15.3208523  -2.9161963
  -0.0875376 -15.2493706  -2.5958972   1.0694041 -16.2432747  -2.7247448
   1.2612197 -31.5382671 -33.9101219   1.7968186 -32.3384514 -34.2113380
   0.4887796 -32.0389481 -33.4795876 -21.3010902  36.1556435  18.3664227
 -21.3255653  37.1301918  18.5796165 -21.7296333  36.1555862  17.4448681
 -17.1369438  13.0605421 -18.1957436 -17.4240417  13.6058035 -17.4934082
 -17.4057579  13.5830469 -18.9706860   7.8176742 -37.6834869  28.8930588
   8.3972483 -38.1008339  28.2247162   8.2042007 -38.0582504  29.6976833
  18.5384960 -37.7788963 -22.0406895  17.7032795 -37.3420105 -21.8320026
  18.3489532 -38.6730080 -21.7638149  14.2812977 -13.1641483 -51.2599144
  14.0430737 -13.3958988 -50.3083992  13.5740318 -13.7183857 -51.7299194
   0.5426311 -32.1422043 -26.6722527   1.0824771 -32.4799690 -25.9087677
  -0.3797758 -32.1740036 -26.2218094 -24.1513939   4.7272649 -14.2186613
 -24.2845383   5.6560674 -14.1950512 -24.0444908   4.6022263 -15.2151937
   6.4920959  10.6312904 -19.1236191   6.2359557   9.7785501 -18.7717686
   5.7040396  11.1615314 -18.8502731  -6.9451618  33.2316704   5.0786896
  -7.2325425  33.5494423   4.1999416  -7.8970642  33.1444435   5.4920001
   5.2530723  31.7892456  -2.2943165   5.0286722  32.5227661  -2.9565973
   5.3878665  31.0941353  -2.9604197  -1.3895907 -32.7414703   7.9333701
  -1.2749491 -32.2699814   8.7580776  -0.9347514 -32.1102028   7.2961912
 -17.2922802  -2.1781003 -34.9681892 -17.2980595  -2.6709595 -35.7961121
 -17.3577766  -2.9666626 -34.3695984 -23.8822403  -5.2010274 -37.6105499
 -24.2178612  -5.6944246 -36.7878380 -23.9548988  -4.3179936 -37.1009941
 -24.6881199 -37.8386383  -5.4071503 -24.4336758 -38.6944427  -4.9668150
 -24.7049046 -38.0795822  -6.3584633  -0.4146861   3.5754797 -47.4429092
  -0.8946664   3.8503394 -48.2999840   0.4392603   3.3527904 -47.8847275
  22.8895435  26.0499592  15.6617489  22.1582623  26.6478729  15.6248379
  23.6927147  26.5495625  15.8214064  31.7737942  36.6947937   5.6579452
  31.8213177  37.0989914   6.6339340  31.8941822  37.5416107   5.2108650
  16.1486740   9.4983139   3.2302403  15.5881033   9.9814730   3.9471023
  15.6483755   8.6754675   3.2034864   3.8164010   1.8883805  15.7342834
   4.4475117   2.5040843  15.3202009   3.0741682   2.0187130  15.1085596
  18.9298687 -24.6896725  20.2071190  18.3544559 -24.6832409  20.9862919
  19.0442734 -23.7545910  20.0328522  40.8876266  28.9338360  11.2332954
  40.7505417  29.5331535  10.4608049  41.6860886  29.4250889  11.5456915
  -0.0954835  14.2512350 -26.0432434  -0.9333197  14.6750689 -25.8163109
   0.4367867  14.6118002 -25.3038635  -9.0714407 -10.8381186   3.3828404
  -8.3334885 -11.4661875   3.1917446  -9.7673035 -11.3163195   2.9172091
  43.8102608  20.2682934  18.5413609  44.7779617  20.2839794  18.3943825
  43.8190727  20.8561916  19.3435535  35.8110199  11.1944771  -3.7471516
  35.6974068  10.2474852  -3.6301062  36.1602821  11.3954306  -2.8372083
 -18.7959442  39.4113083  13.2497911 -19.0544014  39.8142891  14.1331205
 -19.2614708  38.5438042  13.3554831  23.5160332  -4.3272414 -12.3221378
  23.0527744  -4.1634221 -13.2075481  22.8102779  -4.0620370 -11.6979132
  16.4355850  37.3203583 -11.8283319  16.7583885  36.5344048 -12.3584452
  15.5370626  37.3327560 -12.2674122 -13.4642019   8.1886034  -5.5403037
 -14.2061539   8.5260420  -5.0666761 -13.6243992   7.2773495  -5.7291360
  10.8220930  17.7755661 -33.3593102  11.1867781  16.9566269 -33.0162201
  10.3642063  17.4748669 -34.1672134  -6.2683263   1.0872791   7.7831669
  -5.4665923   0.5177915   7.9665327  -6.2412810   1.6846646   8.5567999
  25.6376286   3.7839377  29.9600105  25.2055035   3.0930498  30.5937233
  26.2578583   3.1490774  29.5306816 -32.2269325   6.3795209 -34.7749786
 -32.8605080   6.7194114 -34.0990143 -31.6009521   5.9247813 -34.1605492
  28.8146210 -34.7806740   2.8187385  28.7248249 -34.0753899   3.3877215
  29.4508514 -35.4037018   3.1364772 -31.9102116 -11.4270430  26.7315655
 -31.5557652 -10.7144547  26.1217289 -31.3654633 -12.1957493  26.4548588
 -14.9750986  18.6314468 -41.7677460 -15.8002987  19.0592709 -42.1778412
 -14.7877483  19.4676476 -41.2014465 -23.8214397  17.6372356  41.0557747
 -24.1297836  18.5271873  41.2740593 -22.8049335  17.8392258  41.0637970
  31.4380188  16.7824764 -23.0721912  31.2809887  15.8111916 -23.0105438
  31.8377571  16.8876247 -23.9290581 -25.4318867   0.5864201 -25.4012527
 -24.4523926   0.6790513 -25.5205708 -25.5252228  -0.2607661 -25.9014320
  12.9038115 -42.1186409  -2.2654428  13.2399673 -42.5922508  -1.4276223
  13.6615171 -42.3825989  -2.8691866 -17.7992477  14.4534168   8.4294920
 -18.2411976  15.2140217   8.8377047 -18.4809418  14.0152321   7.9243026
  -3.3530698 -11.9794388 -30.6488762  -3.6646850 -11.1270914 -30.9422455
  -2.4453444 -11.8146534 -30.4064045  -3.4919705 -31.1617813 -16.3192654
  -4.1949868 -31.2170048 -15.6867247  -3.7309878 -30.5172443 -16.9827423
 -39.2969284 -24.8165207   0.5867590 -39.4636955 -24.0714207   0.0020194
 -39.6513062 -25.5475540   0.0629086  31.6860886 -29.4371052  25.2095909
  31.8912449 -28.4861660  25.4436207  30.9338207 -29.2691402  24.5905762
  23.2921619  -5.4312229  -0.2224669  23.1872330  -4.4815850  -0.4692577
  23.3371372  -5.2435079   0.7624990 -10.1976099   7.8612070 -28.8589668
 -10.7671518   8.2250433 -29.6007557 -10.6817217   7.0194836 -28.7604961
   0.8141844 -11.6611633  11.2095709   0.2538507 -11.7622671  12.0264530
   1.7015411 -11.3411837  11.5955954 -22.5225067 -45.6439590  -2.8253157
 -21.5717335 -45.8238220  -2.5077620 -22.2865353 -45.1715050  -3.6504602
  -0.3718289  28.4635277 -34.8634377   0.3985894  28.7317982 -34.3417931
  -0.7261345  27.7391605 -34.3469391  27.0113525  -3.8388908  -8.7964296
  27.4084721  -4.2349882  -9.6030788  26.0853710  -3.7402413  -9.1607561
   5.5885530 -17.4696693  25.6578751   6.3180552 -16.8159313  25.4813309
   5.1740503 -17.1642990  26.4757366 -38.7629013   0.9935103  19.8025169
 -39.3743782   0.8642759  20.5529919 -37.9128914   0.7448438  20.2576790
 -11.3599510 -33.8183594  -9.3615608 -12.3774595 -33.8792038  -9.1801882
 -11.0972958 -34.7327843  -9.2965994  21.2907124   6.9414682   3.5095809
  22.1444321   6.5261002   3.2300251  21.3012276   7.7572637   2.8919287
  10.8812342 -18.3841572 -46.6956253  10.0059958 -18.7271214 -47.0025711
  10.5986080 -17.4387474 -46.4336815  42.9406166 -21.4759045 -12.7140226
  43.8974037 -21.3864822 -12.9740591  42.5489197 -20.7757034 -13.2752523
  -8.8708696 -27.5306187  25.6672707  -8.6807127 -28.0501556  26.4795933
  -8.5125484 -28.1526661  25.0274429  10.6193171  13.9053307 -33.8813324
  10.2389278  13.6135654 -34.7729607  11.0174608  14.7255821 -34.1596375
  -8.3808022  -1.7900859  41.1052437  -8.1399946  -2.4283879  41.8461647
  -7.5370932  -1.8318411  40.5810623   5.3496084  -3.4747577 -20.3710117
   5.6164713  -2.6349425 -19.9567966   4.8002224  -3.8524032 -19.6268253
   9.5111103   3.1200526  -6.0309377   9.3631916   2.5841451  -5.1684999
   9.2116814   3.9935532  -5.7058806   6.2660613  30.6249561 -24.9446163
   5.8048100  30.3335171 -25.7944221   5.8483648  31.4804173 -24.8250713
  -5.6218390 -11.0767498 -25.0288582  -6.5699477 -11.0403233 -24.9429817
  -5.4066772 -10.1309958 -25.1499271 -37.8402367  32.7875481   6.5621409
 -37.9502563  32.8427696   7.5331264 -37.7122574  31.8256989   6.4484096
 -27.8297176 -29.7924271  22.9339180 -27.7077827 -28.8663788  22.5493946
 -27.9186058 -30.2601509  22.0567684  21.0923214   5.1615949 -29.8276806
  20.5682220   5.4978456 -30.6462002  21.9810505   5.1051483 -30.3150234
 -27.7587242   9.0895271  43.5354004 -26.7722721   9.0581932  43.6095657
 -27.8772297   9.5174847  42.6935043  26.8898029  13.6957321   4.0164118
  26.6567211  12.8456860   3.5324700  27.8746624  13.5571165   4.0586109
  14.8093576  25.0346375  -5.4985747  15.4265709  24.6571026  -6.1516371
  14.0798025  24.4038601  -5.5796895 -24.3245487   1.5409704 -28.8735390
 -24.0723801   0.7471902 -29.3425312 -23.4367809   2.0341852 -28.8884201
 -27.4301624  30.7493019 -22.7653542 -27.9863071  31.5766983 -22.9291019
 -27.5970325  30.3110771 -23.6161709   5.4496641  32.2683182  -8.6673660
   5.1070995  32.7947540  -9.4519072   6.1513877  32.9328156  -8.3858376
 -28.2762547   1.3944741 -39.5773582 -27.3973808   0.9741217 -39.3324814
 -28.3007412   2.0558922 -38.8726158  41.4256897 -28.3725910 -14.2909698
  41.1011620 -27.4640446 -14.1601286  41.6183662 -28.3877411 -15.2254171
 -13.5456018 -12.8316059  -6.8158307 -13.9198179 -13.3167410  -6.0251460
 -12.7748308 -13.4172220  -6.9439807 -30.5935173 -11.0994902  32.6743240
 -29.9242954 -10.3898592  32.5532875 -30.0643044 -11.6754885  33.2751274
  34.5598793  17.0336018 -11.0143299  33.7075157  16.7347717 -10.6576357
  34.3267059  17.8338757 -11.5019932 -21.8384247  -1.0232552 -13.2853136
 -22.7529964  -1.0427756 -12.9693213 -21.5548820  -1.9375502 -12.9041176
  17.8838329  43.6783485  -2.0391593  17.2482548  43.2853737  -1.3624669
  18.1365471  42.9427299  -2.5500329 -29.7237568   9.6659451 -29.1304131
 -29.8956394   9.3776064 -28.2475338 -30.4175034   9.2963686 -29.6984463
 -21.0416260 -26.2205086   9.5925589 -20.7599754 -26.8195648  10.3084297
 -20.7658806 -26.7641888   8.8051615 -19.7686920 -43.0379562 -13.0613623
 -19.1834373 -43.7337074 -13.5054235 -19.1016426 -42.8203049 -12.3090620
 -40.9135323  22.6937408   6.8259816 -41.1752777  23.6038361   7.1519985
 -40.0076714  22.9620113   6.5305719   6.8180823 -21.9333782 -40.0209732
   7.6664858 -22.2690468 -40.1540642   6.8815851 -21.4509163 -39.1321411
 -11.9802208  10.1099024  -6.9925866 -12.5848398   9.3963251  -6.5930200
 -12.4856167  10.2866669  -7.8052163  -7.2082715 -31.1602478  31.0440960
  -7.1134048 -30.3805599  31.6555729  -6.8769331 -31.8656807  31.6685715
  14.2944956  16.9475422 -17.1592903  14.1590414  15.9768829 -17.2619038
  14.8900433  17.1040516 -17.9205093  23.9557323 -32.0557327  11.9570475
  24.6056232 -32.5850296  12.4241371  23.1158257 -32.2901039  12.3659315
  12.2156925 -27.8679523  -3.9957197  12.0702038 -27.9598808  -2.9740844
  12.8502970 -27.1169624  -3.9521449 -20.4706821  12.1202812  14.8843918
 -21.4381866  12.0127058  14.8756380 -20.3590145  12.2668505  15.8353443
  18.9893169 -24.1395473 -10.1947851  18.3963604 -24.7654171  -9.7498808
  19.1656189 -23.4880676  -9.4929895   6.8671770  -3.8885295  51.4409599
   6.5551324  -2.9512734  51.3736763   7.4165416  -3.8032837  52.2392273
   7.6693606 -17.9148445  30.0426102   7.3999023 -17.0956078  29.6275139
   6.8711982 -18.3377151  30.3516560 -29.0160542 -12.4403458  -2.2531011
 -28.1065216 -12.4558344  -2.6135020 -29.2503242 -13.4018221  -2.2462339
 -14.1155491  39.9488182   5.1343207 -13.7692881  40.8769836   5.2905240
 -13.5109415  39.4515495   5.7523623 -27.1859150  36.3999939   6.6707463
 -27.8643150  35.9529381   6.0373144 -26.4903183  36.5170059   6.0423884
  23.0549583  -7.8236742 -27.7760983  23.7102432  -7.4892282 -28.3727646
  23.4967518  -8.6646376 -27.5082111   8.0947151   3.3994744  23.5140991
   9.0910873   3.3089724  23.4070263   7.8933678   2.5628240  23.0254135
  -1.5244551  -9.6958551 -16.5304432  -0.9097515  -9.8621435 -17.2262268
  -0.9111190  -9.5557785 -15.7870378 -31.2889843 -34.8346672  12.7976170
 -32.0292435 -35.4296036  12.5285769 -30.9582424 -35.2930069  13.5704184
   8.6180696  -7.7557883  -9.8497992   8.5686846  -7.1115203 -10.5720854
   7.7443581  -8.2090979  -9.8901415  -2.6909008  32.8902245 -15.3695612
  -1.8378787  32.7728195 -14.9355907  -3.0930541  32.0153542 -14.9852524
  33.7428093   8.8035326  -8.9527464  34.4320755   9.3066473  -9.3405924
  34.1664162   8.2637711  -8.2791729  35.9892769 -11.3745575   6.9508362
  36.4234657 -11.2801886   6.0270534  35.7081299 -10.5026064   7.1323314
 -16.5295238  17.9960461   5.4241495 -17.3446865  17.5304375   5.6676874
 -15.9605379  17.8772926   6.2194524  -1.5027059 -24.7830944  12.2335978
  -1.8566399 -24.2206898  11.4509945  -0.6014873 -25.0214844  11.8410339
 -22.9561005 -23.8933926   1.9910818 -23.8955326 -23.5986958   2.2637086
 -23.1890202 -24.8371601   1.7973779  -5.0940866  13.1726742 -22.9188747
  -4.7937169  14.1040354 -22.5790157  -5.1946282  12.7515812 -22.0330791
  36.3012810   1.0979687 -12.9205217  37.1816635   1.3254766 -12.6340952
  36.4171524   0.6581849 -13.7552290  14.2750330 -12.9326296  12.5154896
  13.5535622 -13.5869780  12.2086792  14.4796572 -12.5630207  11.6243563
 -19.2231827 -43.3905411  -1.5686456 -18.7512951 -42.7130318  -1.0607587
 -18.9836197 -43.1096382  -2.4759417 -26.5257339 -16.5373631  11.2086067
 -26.6533566 -17.4368019  10.6969090 -26.4270935 -16.0313206  10.3639793
 -16.9387112  -2.2878890  -3.7006731 -16.3241615  -2.4940422  -4.4155231
 -17.2745991  -1.4440444  -3.9898670 -21.2094574  35.7591629  -7.8529577
 -21.3511887  36.4684181  -8.5183706 -22.1327305  35.7644196  -7.4091072
  21.3481922 -30.7547607 -12.0827827  22.2315350 -30.2549515 -12.0715666
  21.4101448 -31.1059399 -11.1684589  18.9216766  40.3291435 -19.4060574
  19.2779922  39.5452538 -19.0023117  18.0667343  39.9235992 -19.7838974
   3.7679706  -4.0184731  52.0612068   4.1162295  -4.8564954  51.7170525
   4.3996940  -3.3605981  51.8299255  27.1256313 -34.0261040  -3.1729424
  26.8847485 -34.2776642  -4.0567489  26.7506351 -34.7172585  -2.6412814
  33.7044106  10.2699080   0.5711483  33.1929016  11.0130863   0.8119500
  33.6835518  10.2233486  -0.3893791  13.0127010  27.3797436  12.5591202
  12.3822517  27.8282452  11.8909702  13.0589857  28.1294098  13.2002373
 -11.7255869  -9.9214439   0.1765063 -11.1417351  -9.2878370   0.6658198
 -11.6751785 -10.6594315   0.8265269 -22.0180492 -33.0474625 -22.2538433
 -22.0941219 -32.2226257 -22.8562813 -22.3075981 -32.6654701 -21.4386063
 -14.5696154   3.4216182  -4.5513120 -13.8228836   2.8318205  -4.6790352
 -14.9259090   3.5581541  -5.4582324   6.5014968 -22.4375515   7.2721572
   5.8600073 -22.6523037   7.9894052   6.0418954 -22.9059734   6.5611038
 -17.0139332  33.2253799  -5.5770640 -16.8666954  32.6762581  -6.3935146
 -17.4186497  32.5448990  -4.9486723  25.3769302 -22.6059475  -8.2171106
  24.5677891 -21.9987011  -8.1955147  25.0022144 -23.3439713  -7.7438741
 -13.7349434  29.4173717  42.6497002 -13.9006081  30.3277626  42.2904015
 -13.0618811  29.6310482  43.3118286 -31.4589481  23.9498119  16.3273621
 -31.6384602  23.2086582  16.9408169 -30.5398483  23.7590179  16.1352444
 -31.1805153  16.9436111   3.9337316 -30.9814835  16.0526752   4.3127847
 -31.0819435  16.7252636   3.0048857 -10.2453289   6.1839767 -15.7242727
 -10.6728868   6.2178860 -16.5920830 -11.0234461   6.3512239 -15.0982132
 -12.5097198 -31.8187370 -13.3743477 -11.8021269 -31.7547474 -14.0755930
 -11.9821024 -31.8356667 -12.5443783  19.5228882 -17.2329788 -16.5356731
  18.6267776 -17.0217857 -16.1958485  19.4090538 -16.8980694 -17.4522762
   7.6158528 -18.4373760  45.5209999   7.5598431 -17.7134018  44.8671570
   6.6664004 -18.3698730  45.9051094  10.1177721  -3.5088484   8.3060703
   9.7895126  -2.7804158   7.7113948   9.6962204  -4.2530618   7.9178061
  19.7816658 -22.0314503  -4.9399924  19.0622272 -22.7144890  -4.9650598
  19.3079033 -21.3857555  -4.3945389  17.7562885   0.4565317  37.0903320
  17.1026974   0.6236464  37.8041878  18.5913963   0.7234379  37.5774574
 -37.5280800   1.1442984 -20.2461853 -37.6831474   0.6970440 -21.0659218
 -36.6987686   0.5687872 -20.0082245  14.3020029  -3.0708425  -6.7038126
  14.4056988  -2.9940939  -7.6464834  14.7765245  -3.9838054  -6.6048913
  -9.9106283 -34.5779152  17.8580189 -10.5098352 -34.0255318  17.2630138
 -10.3540220 -34.5267830  18.7265778  10.6109285  -6.9080372 -40.9697456
  10.7921658  -7.7108583 -41.5289688  11.3323393  -6.2943726 -41.3037834
   4.9789619  -3.5806110 -52.9380913   5.2779307  -3.9709163 -53.8255272
   5.8460970  -3.6654620 -52.4592857 -30.7447987  12.0842285  -9.3368788
 -29.8260098  11.9281406  -9.6937628 -31.2336998  11.7430887 -10.1010857
  -8.4594212   8.1685791 -37.2349091  -9.4398670   7.9872561 -37.3521080
  -8.1326656   8.0005751 -38.1589165 -23.1253967 -36.0597305  17.1710815
 -22.4251842 -36.2470093  16.5174332 -23.5728569 -35.3373528  16.6145973
   0.5890192 -30.4751415  -2.9999871   0.0384017 -30.1297932  -3.7471478
   0.5117956 -31.4150887  -3.2438862  18.7653522 -31.4334679  15.8961067
  17.9677353 -31.9888496  16.0955601  18.8426819 -30.7878704  16.6137142
  14.4853392 -33.2390480  18.5039921  13.8643188 -33.9507828  18.8802376
  13.9400406 -33.0282593  17.7024117 -33.2424469  14.8248558  36.1085625
 -33.5756836  15.2401323  35.2429008 -32.3245125  15.0404015  36.0420265
 -14.9399796   7.2648392 -40.5781441 -14.8549204   6.5254421 -41.2554092
 -15.4069567   7.9188089 -41.0949173  14.5298700 -15.8375578  41.1175270
  14.4419775 -16.6713600  40.6521072  13.6989489 -15.8608770  41.7098122
  22.4229031  34.1491661  24.3673153  22.8467083  34.0484085  23.4688053
  23.1006718  33.5709457  24.8682270 -26.8549461  18.2577572 -35.8445053
 -26.5579872  19.1769714 -35.7044525 -26.6309299  18.2310925 -36.8327484
 -15.4576206 -14.2545881  26.0014191 -15.7818623 -14.7858181  26.7848911
 -16.2132797 -13.6417503  25.8753071  16.9066486 -16.3584118  35.1665192
  16.9401264 -17.3216286  34.9706764  17.4125347 -16.0659294  34.3942184
  20.2293720 -14.7918625 -38.6298294  20.6657352 -15.6942167 -38.7975502
  20.5041962 -14.3445501 -39.4633980  18.1277618  46.4776344  -2.3526859
  17.6552296  45.6500206  -2.1652217  18.9011593  46.1202965  -2.8096054
  24.0004730  12.6158199 -22.2498188  23.5801754  11.7269211 -22.1868038
  23.3803082  13.1819305 -21.8080635  -8.5180702  41.0630608  11.8478785
  -7.9556756  41.3360023  11.0731468  -9.3879929  41.0420189  11.3852463
  28.3202190  10.5523148 -27.9676991  28.8761940   9.9547081 -28.5734634
  27.5400791  10.6458626 -28.5178623   1.7812525 -29.4177074  23.8227463
   1.9888611 -28.4922867  23.5054512   2.7197201 -29.6151028  24.0594902
  26.3456535  16.1548977 -18.7948914  26.3071461  16.0881119 -19.7926865
  25.5924435  15.5734844 -18.5627060 -11.5649176 -40.3082542   7.8629837
 -10.6778297 -40.6395226   8.1048937 -11.3647747 -39.4164200   7.5275278
 -16.6898994 -27.3340454  -2.7931535 -15.7543907 -27.6410065  -2.8508928
 -16.5301857 -26.3923683  -2.9868343 -18.7768230  24.0842037  23.5609264
 -18.4267921  23.1531506  23.6030312 -18.4140072  24.4912910  24.3900738
  37.9865646  -4.2229629  -2.7687266  37.1454124  -3.9310703  -3.2393174
  37.9040031  -5.1768785  -2.9147043  28.0396118   6.4128470  -8.9283276
  27.7576408   6.7070656  -8.0231857  27.2167015   6.6054826  -9.3941383
  -4.3301401   8.3492994  33.1020813  -3.9441221   8.8075285  33.8547859
  -3.4967833   8.2466869  32.5303879  16.5581837  23.0069790  -1.4601252
  16.8533974  22.1019669  -1.6299319  15.5787706  22.9502163  -1.5377176
 -28.9594746 -16.0414505  -2.7932882 -28.5779247 -15.8889704  -3.6661181
 -28.5660324 -16.8710938  -2.5527790  15.3204088  29.2074032   4.8773971
  14.5191479  28.6488152   4.7440152  15.7271910  29.1711693   3.9856064
  -3.5713699  42.7011147  -2.5521829  -3.7713854  43.2755165  -1.8314868
  -3.1713002  43.3046188  -3.2010727  39.2239761 -12.1771049   2.4224362
  38.9676208 -11.2203503   2.4276607  38.3254547 -12.5798903   2.2808828
  36.9816284 -33.5994873  -1.0637082  35.9796257 -33.6409988  -1.1938177
  37.1717377 -34.4329262  -1.5929775  -5.1534705  -6.6827068   1.9806808
  -5.5609698  -6.1042948   2.6608942  -5.8573952  -7.3699155   1.8790231
  15.5134335 -18.3607254  17.4895363  16.3222733 -18.4459171  17.9852810
  14.9197559 -17.9092312  18.0891762   5.2247515 -13.3084774 -42.9492455
   5.9939408 -13.9402285 -42.8931046   5.6613173 -12.5376091 -42.4283180
   5.2526102  25.7988300  -5.0979486   5.3175206  26.4401093  -5.8359165
   5.9948564  26.1270294  -4.5412579  19.2358665  49.3416176  -4.1479497
  18.5945606  48.6325302  -4.3366561  18.6753387  50.1506958  -4.2620525
 -20.1965065   7.7854791  10.0391197 -20.3349419   7.3350687   9.1827545
 -20.9201088   7.3484807  10.5781012  -0.4780433  13.3110685  -1.2121459
  -0.7413529  13.4555054  -2.1889486   0.4491273  13.6555071  -1.2118609
  36.3017044 -28.9172401  14.5682106  36.9633369 -29.3386574  15.1513729
  36.8927345 -28.6652813  13.8577623 -15.1225262 -37.8447037 -18.7213764
 -14.3035192 -38.3012733 -18.3582001 -14.9327812 -37.8861847 -19.6552067
  21.7906284  -9.4038401 -35.7998466  22.1697617  -9.8850212 -36.6191330
  22.5317497  -9.5598278 -35.2209091 -16.1843758 -17.3065090  22.7036114
 -16.3655968 -18.1738415  22.3371201 -16.1298828 -16.7741833  21.8852978
 -24.8917408 -43.5285568   4.4264002 -24.3427334 -42.9893608   5.0717063
 -24.6418362 -42.9855194   3.6359720  23.4703026 -14.6062613 -38.4696083
  24.3910236 -14.8351250 -38.5745964  23.4782124 -13.6613312 -38.3792076
   5.5685830  45.0832901 -14.0550261   5.5398302  45.9626350 -13.6378670
   4.6256890  44.8803596 -14.0059662   5.6916528  36.8281937  15.6994524
   5.7941756  37.0274696  14.7369547   6.6300464  36.5142059  15.9043827
 -39.4472084  -1.8417022   6.0097404 -40.3196983  -1.4288120   6.2855625
 -39.7331505  -2.7557325   5.7973747  17.7354126   6.0912519 -26.4518757
  18.7203712   6.2325563 -26.3936501  17.6423779   5.6597481 -27.3780861
  -2.9537077 -30.5801392  15.1640606  -2.0462654 -30.4588070  14.6499166
  -3.5528400 -30.0149612  14.6118279 -25.6671715  10.5533905   0.3461241
 -25.3637218   9.6308250   0.5146253 -26.3904171  10.3836241  -0.2851493
  26.1986294 -10.1645365 -29.4212570  26.3692665 -11.0444622 -29.8950748
  26.4211578  -9.5307570 -30.1317158  40.0443268   9.4023991  -0.8505123
  40.9131927   9.5642824  -1.3689559  40.1494637   8.3993139  -0.8800735
   6.7388425  -4.2382474 -33.6172066   6.4381862  -4.0204802 -34.5184898
   7.5801167  -3.7091651 -33.5137596  31.0793667   9.6981449  34.9317436
  30.8729305   8.7423000  34.9843674  30.1934147  10.0550671  34.7301903
  18.0841866  -6.4428596  43.0775528  17.7089996  -6.7131624  42.1955643
  17.2283611  -5.9482145  43.3877296 -23.8954048  -9.8360090   8.7733622
 -23.9881210  -9.3114862   7.8818583 -23.5129433  -9.1161070   9.3438597
  -2.9490802   2.4774883  50.0466003  -3.4921119   1.6997050  50.1093674
  -3.0406098   2.8436644  50.9498291 -22.6013851 -31.6852112  14.4590931
 -22.1639194 -30.9046574  14.8279009 -23.3762093 -31.2793808  14.0919418
   8.0295115 -20.9392853  25.4911213   7.4897003 -20.1798058  25.3954582
   7.8899598 -21.4713039  24.6827335  39.6828117 -17.4221249   9.4328804
  40.4339981 -16.7458878   9.3354826  39.2591896 -17.2541332   8.5617256
  26.8842850  20.1377811  12.0781775  26.1353512  20.5656490  11.5505619
  27.4441700  20.9890728  12.1341133  -8.9358416  41.8536606 -17.9099922
  -9.7896461  41.9238205 -17.5540447  -8.6854877  40.9200897 -17.5961971
 -19.9675694  37.2114449  -5.2910476 -20.5107269  37.8763199  -5.7176795
 -19.0387917  37.4857254  -5.5234952 -23.8199387  16.3584423  27.7412434
 -22.9806385  16.7514610  28.0531025 -23.5029602  15.8740425  26.9143982
 -36.1695023  -8.1410913  24.2069340 -36.4364967  -9.0589256  23.9262390
 -35.2585487  -8.2852802  24.4667435 -25.7217140  34.7826538  -2.0689182
 -25.7788410  35.4709587  -1.4127415 -26.5200520  34.9497414  -2.5997276
  30.2754745  -5.0246229 -14.9432878  31.0251160  -4.8077488 -15.5517702
  30.1909256  -4.1520324 -14.4873657   3.2681088  10.3838902 -22.3833618
   4.2455587  10.3591213 -22.4180584   2.9949059   9.7778101 -23.0536594
  24.3194294  -5.5403557 -17.3564205  25.2939777  -5.6756759 -17.3126297
  24.0860386  -6.3880453 -17.6506462 -33.7933769 -30.8419495  10.7256536
 -33.3829498 -30.2343216  11.3946896 -33.4772758 -31.6699181  11.1058521
  15.5582762   1.1595936  25.3822651  15.2444277   0.2269109  25.5379333
  15.8510618   1.4146894  26.2578030 -33.8646393  17.4557972  -5.6361375
 -33.3880119  18.2150955  -5.7629361 -34.7465706  17.6134319  -5.9428706
 -27.7178478  -4.5187435  33.4987068 -28.3365250  -3.8182409  33.1801872
 -28.0821457  -4.6188626  34.4205093 -23.4063396 -36.0084152  11.1743393
 -22.5344124 -35.6289215  11.2288361 -23.7087765 -35.8773346  10.2385197
 -24.1574078   9.5248003 -39.5384903 -23.6648102   9.7225466 -40.4021530
 -23.5224533   8.8819294 -39.1732559  -7.5178905  16.3445950 -32.9422607
  -7.2760701  15.3646650 -32.9156265  -8.4250765  16.3060341 -32.5570259
  15.0427275 -20.9351368  38.8534775  14.4987202 -21.6630249  38.5000725
  15.9261084 -21.1757622  38.5796432  43.4360123  25.1276035   0.2443101
  43.1937408  25.7903004  -0.4743858  44.2864723  25.4716530   0.5075031
  18.6774044 -25.7584629 -19.6584625  18.2528553 -24.8783035 -19.7389317
  18.4621143 -25.7921505 -18.7021141 -40.3109589  28.1466503  21.7712860
 -39.3851051  28.0649109  22.1047745 -40.5224419  29.0978565  21.9698963
  35.5585175  23.2536945   7.7836914  36.0284309  22.7448444   7.0541949
  35.1025581  22.5082092   8.2239923 -29.5777588 -16.4363461  26.1189022
 -29.5294189 -15.4873104  26.2884884 -28.7192268 -16.7250481  26.3345261
  14.3991156 -33.8918457 -25.7540169  14.4102125 -33.1787720 -26.3762627
  14.8009911 -34.6419830 -26.2061329 -23.4253998   9.4125872   3.7577074
 -24.0763168   8.8562298   3.1956427 -22.7942123   8.6116199   3.9408185
 -22.9163456  14.9882383  -6.6893783 -23.7495117  14.9400005  -7.1418514
 -22.4591675  15.7176008  -7.1028037  12.7287750  10.4599237 -15.6858015
  12.5618000  10.4801645 -14.6870222  11.9135399  10.8941164 -15.9731445
  11.4039526  -9.8946304   5.2891002  12.3548021  -9.5720968   5.3495593
  11.0300674  -9.5543242   6.1335735  17.9614525   1.1366987   7.1476984
  17.8624821   1.2870023   8.1218128  17.4294376   0.2814486   7.0616760
 -18.3174038 -29.4983139  12.8191977 -18.1270180 -29.2010479  13.7254000
 -17.4833279 -30.0247459  12.7137089 -28.4529228   0.5603102  -3.7765186
 -28.6233177   0.2474305  -4.7161560 -29.1954460   1.2242082  -3.6411006
 -25.6517410  -6.9333401   3.9316509 -24.9917889  -7.6763577   3.8621480
 -25.3486462  -6.3489475   3.1557305   5.3687015  27.0325832 -22.9108467
   6.2760148  27.1017532 -23.3580303   5.1816006  27.9264965 -22.7039165
 -17.2000217 -25.0938053   3.0870099 -17.8076439 -24.4747028   2.6684940
 -16.3350258 -24.6949520   2.9147832   2.3809319 -23.0006218  -8.6300364
   1.7969270 -23.2834320  -7.9038115   2.9600329 -23.8098087  -8.6204910
 -24.0750904 -18.1172314   0.1429230 -23.5383472 -17.2875347   0.0636288
 -24.9624023 -17.7121620   0.1353033 -15.2213554   7.8894763  26.6099072
 -14.7529755   7.6059012  25.7733917 -15.1118917   8.8614655  26.5132446
  40.0985947  33.4777946  -6.5248890  39.3263168  34.0599289  -6.6464562
  39.6241798  32.6343002  -6.4287176 -22.8760929   9.3179979 -32.4669456
 -23.2120342  10.1978340 -32.1619072 -22.8198242   8.8604097 -31.6087399
 -33.2535629  -6.9103756   4.3118596 -32.8448486  -7.7361021   4.5248981
 -32.8550224  -6.6553655   3.4979243  -6.0815287 -30.8020515  -2.0730276
  -5.6595607 -31.6798878  -2.2605798  -6.4455147 -30.5828075  -2.9523022
  13.6387310 -18.5955563  41.2305298  12.7856722 -18.4052048  40.8164291
  13.4555588 -19.5727348  41.4549103  34.3881454  -3.4756839  37.7717094
  34.6947441  -4.3541608  37.4253922  33.3927994  -3.5537908  37.7388573
 -18.6359482 -44.6429024 -17.7773666 -18.6183548 -43.6624680 -17.9324379
 -19.4688568 -44.8924942 -18.2726498 -16.0471687  33.8811607 -18.0929642
 -16.7240314  34.5806160 -18.0238018 -15.6852322  33.9456291 -17.2043285
 -17.4212055  10.4443007  21.7400265 -16.8157711  10.7012520  21.0301342
 -17.3339558   9.5278111  21.7440166   3.2802026  -6.6776633 -32.9128532
   2.3480175  -6.9004469 -32.6380539   3.2276390  -6.9857106 -33.8590889
  28.0724087 -16.9013443 -27.7951775  27.3512497 -16.5335388 -27.2500324
  28.7081223 -17.1409264 -27.0635147 -38.9557877 -17.7114735 -27.6318054
 -38.1783104 -17.3733711 -28.2265434 -39.1742401 -18.4883881 -28.2181644
 -29.6537800  29.2229748  18.9947262 -28.7588749  29.2704906  19.4602337
 -29.5270176  30.0205650  18.4273605 -22.9017448  16.2526875 -19.7300529
 -23.2004471  15.4368725 -19.3924007 -21.9486980  16.1466961 -19.7077637
 -19.1400375  34.2187538 -17.6054726 -18.6650639  34.5682411 -16.7942619
 -19.5114021  33.3637047 -17.3019295 -26.2356720  25.1861076  -7.5728106
 -26.4288731  24.7009277  -8.3718500 -27.0691643  25.0775642  -7.0387511
  17.2456970  26.0020294   1.1863950  18.2240047  26.1424065   1.1271166
  16.8734684  26.5896473   0.5060048  31.3695526  40.2198105 -10.9697437
  32.1521072  39.6820717 -11.1498051  30.7389221  39.5572472 -10.6853485
   0.8349500   9.2327137   5.0615063   0.6086235   8.6607876   4.2750273
   1.0407039  10.0370235   4.5346441  38.0303307  32.6698570   2.7544076
  37.9455070  33.4857826   2.1185653  37.3395386  32.8631172   3.3624742
 -36.5664520  -9.2295799  31.0653114 -37.4854012  -9.0762548  30.6169052
 -36.9875679  -9.6013746  31.9570408   6.6183815  37.4799767 -13.4522915
   6.4515700  36.4797859 -13.4477596   5.8129854  37.8291664 -13.8429527
   9.8731489 -31.9576416 -25.5256500   9.2877951 -32.7591248 -25.4465542
  10.7060404 -32.4300194 -25.6041203 -11.8439426 -35.1390114 -13.0667477
 -12.1531305 -35.9253883 -12.6395264 -12.6225395 -34.5782585 -13.1082582
 -19.2602005 -16.6536655 -15.3507042 -19.0443859 -15.9421482 -16.0130024
 -19.5025120 -17.3484879 -15.9955740 -23.6371975   0.0194844  22.5245438
 -23.4461803   0.7424579  23.1454048 -22.9467163   0.0419369  21.9091454
 -32.2186279 -26.8280602 -22.2453327 -32.9250412 -27.5158291 -22.3531017
 -32.7385902 -26.0269661 -22.3808346  -1.8126316  44.5040932  19.3610630
  -2.4595919  44.2839508  20.0948486  -1.7208768  45.4759407  19.4714298
  42.3551865 -12.9893551  -7.5294123  42.0428963 -13.3226290  -8.3552227
  43.1493034 -13.5274420  -7.3819652 -14.7828436 -34.5845833 -15.7559614
 -15.2486258 -34.9842224 -16.5584049 -15.5768499 -34.2431145 -15.3161793
  19.8639908 -26.9968472   4.0215478  20.0330963 -26.6646595   3.1221485
  18.9159641 -27.2028427   4.0215120   7.1449623  24.2728233  25.3143387
   7.5939188  24.7042999  26.0398655   6.2100639  24.3537693  25.5587807
  12.4935627  30.4955330  13.0877953  12.7093592  30.6924057  13.9717112
  11.6600780  30.9270821  12.8345423 -20.3738937 -17.4615421  -2.0929177
 -20.1628895 -17.4194469  -1.1229511 -21.2285748 -17.1417580  -2.1434801
  19.4179001 -22.9888000 -23.9950676  20.1085567 -23.5294647 -24.5277863
  18.6852417 -23.1968765 -24.6869202  43.1018524  -2.5421944  31.2108746
  42.4000130  -2.1507974  30.6281147  43.6582069  -2.9302666  30.4684677
  17.4642677 -21.8944912  37.9276352  18.0796928 -21.8645020  38.6409378
  17.1858425 -22.8294029  38.0203094 -15.1053467   7.8594446 -52.0198250
 -15.9645748   8.1208630 -52.4363594 -15.3893309   7.7273760 -51.0883636
 -25.3040524 -36.9100380   3.9112968 -25.2638454 -35.9512939   3.7413661
 -26.2204247 -37.0772934   3.7311711  -0.6894839  43.8032150 -19.6805992
  -1.1073221  43.6540451 -20.5465851  -0.7904669  44.7362709 -19.6426773
  -1.3141917  13.3810616  17.4721127  -1.7538551  13.9235983  18.1435070
  -1.1961647  12.5634766  17.9447880 -31.2878532  -6.5183825 -21.4521065
 -31.0476208  -6.8023238 -22.3513470 -30.6901035  -7.1033621 -20.9377747
   5.9517183 -43.7820473  10.5190678   6.6917448 -43.1941948  10.7959509
   5.7418423 -44.1567307  11.3225479  -1.5654693  -7.8911157 -22.0204067
  -2.0306711  -7.5598230 -22.8305302  -0.9240402  -7.1685753 -21.8840351
 -14.9073477  20.9091415 -20.1193161 -15.6469278  20.8912334 -19.5076351
 -14.9780712  21.7456970 -20.6086578   4.0658340  -0.4269229 -20.1223831
   3.3970387   0.2596786 -20.4505024   3.5527768  -1.2543094 -20.4016647
  10.0923872  -4.4091187  20.7933617  10.6055841  -3.9443099  21.4342861
  10.7195425  -4.4845624  20.0213757  -9.2991295  23.6914234 -21.0318279
 -10.1540880  23.9651947 -20.7202644  -8.8551760  23.4973946 -20.1781826
  41.9988937  12.2588177  15.1318846  41.5339775  11.4253349  15.3631401
  41.7161674  12.3501253  14.1807966  -7.5970469 -44.8553886   9.4636145
  -7.6643119 -44.9569664  10.4078283  -7.0595484 -45.6543465   9.2434177
  36.1349640  33.4171715 -16.8117619  36.2782478  32.4563713 -16.4799881
  36.0939026  33.8787880 -15.9731312   8.3768377  -4.0925579 -47.9229698
   9.1112738  -3.5187235 -47.6633759   8.0667057  -3.5782328 -48.7099762
  -0.2123215 -17.3390656  23.7749500  -1.1904932 -17.3829498  23.4428120
  -0.3568542 -17.1462574  24.6999321  -5.2819738 -28.3641834 -22.8494034
  -5.8845763 -28.0800400 -22.1367130  -5.9176874 -28.6739426 -23.4991989
  26.0206127   0.5438381  21.4886551  25.5298672  -0.2643951  21.7971230
  26.9447727   0.1527331  21.5967751  40.5234604   5.0128460   1.0685669
  40.4060822   5.7108879   0.3489429  39.7324333   4.5213838   0.9638550
   3.6805358 -38.4987450  20.4844074   4.0622950 -38.8352051  21.2712708
   2.8778813 -38.1203499  20.7620811   4.1130056  16.8822899  24.0571327
   4.6992459  16.1198254  24.2884865   3.9248073  16.6267567  23.1358299
  13.1756401  13.3981533  14.2262869  13.7909336  12.9132786  13.6377993
  13.3806810  14.3324766  13.9237251  13.5149527  15.7383461  19.9225216
  12.6083651  15.7646198  19.4665680  13.5095358  14.7791729  20.1939945
  10.4766817 -16.5512905   4.1137209   9.8284397 -17.2635307   4.3300743
   9.8955526 -15.7867384   4.3982511 -43.7334938 -30.2262516 -19.3544216
 -43.5893822 -29.2546043 -19.2488689 -43.2582016 -30.5831833 -18.6224537
 -39.3899536  10.6887951   0.5807241 -38.9392776  11.0106010  -0.2228592
 -40.0418243  11.3728924   0.7295545  -7.8166542   6.1144872 -16.8917255
  -8.5981054   5.8565340 -16.3280926  -8.1308622   5.7100210 -17.7455502
 -13.7100163 -45.7578468  12.6075659 -12.7117748 -45.6683311  12.5921965
 -13.8218517 -45.9703026  11.6786280  33.5654182  22.4187717 -14.6974945
  33.5642967  22.9848976 -15.5066309  33.3259964  21.6023178 -15.0608854
   4.2796202   4.5058804  -8.8751078   4.6949735   3.7116301  -8.4372702
   4.2851968   4.2491031  -9.7673340  36.0584679   1.0685742  37.0874290
  35.1146240   1.1114863  36.8932953  36.2186966   0.1256127  36.9687805
 -21.6991138  24.8111458  -6.8114290 -22.4513493  24.1784229  -6.9148641
 -22.0729656  25.3714046  -6.0907774 -29.9134521 -28.5522614 -16.8168926
 -28.9206791 -28.6120949 -16.8355999 -30.1843243 -29.3987103 -16.5591545
  12.9704962 -11.7423649 -36.4616165  12.6773338 -11.4187670 -37.2963371
  13.5231676 -12.5448980 -36.7320938   3.3068275 -32.7464218 -10.0444260
   2.7363224 -33.5032234  -9.8558435   2.7073641 -32.0446053 -10.2978544
 -15.0180435  15.3844767  -5.5643177 -14.8900290  16.3258629  -5.8969622
 -15.9544315  15.2719841  -5.5963097  14.0606861  15.0195351  38.9234123
  13.2575741  14.8878145  39.5050430  13.7493954  14.4233170  38.2236366
  43.9493523  18.3659420  14.8443184  44.7740364  18.6997528  14.4904566
  43.9464684  17.4764233  14.4647732   0.8227583 -15.5932579   9.4518366
   0.1242427 -14.9073057   9.5399446   1.2945819 -15.3862667  10.2620115
  26.2249546  22.8663921 -12.1531687  26.9832172  23.2018738 -12.6675119
  26.6585674  22.0325298 -11.8585758  23.0402985  23.8179398  13.8760815
  23.1800175  24.7561150  14.0507174  23.7151699  23.4367371  14.5481873
 -32.2199898 -35.8238220  15.2400923 -32.3130341 -35.1914520  15.9743843
 -31.4835720 -36.3718452  15.5571108 -31.8613644  12.9709539 -27.4591198
 -30.9534512  13.3399782 -27.6760235 -31.9861660  12.3647680 -28.2119579
  43.5915413   6.4344482 -21.4894390  42.8031464   5.8864641 -21.7857876
  44.1659470   5.7037163 -21.1520596 -32.1178207  -6.3917484   1.0784138
 -31.9016876  -6.8661966   0.2829035 -33.1232834  -6.5687976   1.0816727
  18.3799858 -33.2826233 -12.2763319  19.2215443 -33.1729202 -12.7182961
  18.3667736 -34.2756271 -12.1639366  31.9563656   2.2041502  12.2169485
  32.6486626   1.8813142  11.5961208  32.2560043   1.8611592  13.0596418
  -5.9854536 -31.1595058 -26.5305977  -6.5354214 -31.3933163 -27.3554611
  -5.9942131 -31.9829044 -26.0338326   0.3782285 -28.8797493  10.7542152
   1.1146718 -28.3998108  11.1603060  -0.2438120 -28.1507034  10.6402893
 -28.1957569   7.2130308   1.2831246 -28.0300922   7.4632154   2.2092829
 -27.3665829   6.7769313   1.0314146  -1.7662581  -6.4530034  -4.8236227
  -1.3486438  -5.6436710  -5.0354700  -1.8119282  -6.9438863  -5.6060514
 -20.3938980  18.2234821  -6.8390889 -19.9371796  18.6738663  -6.1036577
 -20.9839611  18.9585476  -7.1388783  17.4703312 -37.9578781 -13.4605827
  17.0017643 -38.4988594 -14.1214657  18.2721462 -37.7708931 -13.9535055
 -24.4481411 -34.2319984  15.7759266 -24.5039577 -33.2398224  15.7759809
 -24.6556873 -34.4982147  14.8337135 -27.2530422  -0.5817711  39.6627350
 -27.6232948   0.2821349  39.3345909 -27.7393379  -0.7392414  40.4661636
 -18.8814068  25.2787437  -6.7119179 -19.7709045  24.8975124  -6.8887086
 -18.9847107  25.5711632  -5.7683845 -11.9217253  34.8597946  20.6795559
 -12.0457716  35.7465668  20.2183170 -11.0230036  34.9603500  20.9920387
 -36.7277641 -19.9276466 -21.6077900 -36.7683258 -20.8861256 -21.6412659
 -36.1522369 -19.7815952 -20.8259602  11.2893305  -8.4418125 -21.9616528
  12.0037317  -9.0229311 -21.6385136  11.4651461  -8.4870319 -22.9670753
 -21.4443684  -5.3530464  26.6565514 -21.2212563  -4.7606778  27.3912563
 -20.6689014  -5.2731819  26.0571365 -26.9963531  11.5752697  24.8048439
 -27.9757175  11.5498896  24.9699039 -26.6745853  11.9760962  25.5759735
  -4.8106127  -7.8914962  -3.0031686  -5.0187368  -8.8094711  -3.2222762
  -4.5426612  -7.9582658  -2.0439217 -11.1962729  -0.2105124 -33.3587875
 -11.3343115  -1.2197301 -33.3255196 -10.9523506  -0.1635598 -34.3345528
 -18.3320770  24.2634964  37.3961792 -19.2508221  24.3863735  36.9811745
 -18.5262947  23.9868202  38.2600136 -29.9813251 -25.7922821 -24.1055222
 -29.8061180 -25.9639835 -25.0805435 -30.8180199 -26.2606487 -23.9859619
  21.0082493 -27.4316368  -4.4302697  20.2889500 -27.5329151  -3.8227925
  21.0611591 -26.4405956  -4.5232363 -31.8698883   8.4737368  37.6768112
 -31.1784363   8.1843557  38.3770752 -31.3066921   8.2750778  36.9073029
  15.4633570 -11.7713604 -16.5039139  15.9181957 -10.9827175 -16.8391914
  16.0642548 -12.4875784 -16.6072388  25.2805614   0.6181877 -30.7802982
  25.0729790  -0.2722929 -30.3574448  24.5159340   0.6569564 -31.3438148
   2.5236030  -1.9137902 -14.2663832   1.8572170  -1.1505938 -14.4105883
   2.4313486  -2.2992737 -15.1369057 -28.7413559  12.1630554  38.0968628
 -29.5971107  11.6546659  38.1012611 -28.1201687  11.4082422  37.9693184
  -0.2212579 -17.9931316  38.4543991  -0.4210657 -18.7294464  37.8195076
  -0.6999322 -17.2972279  37.9508057  42.6311378   8.0254469   3.8329010
  42.3041840   8.7889814   4.3244615  43.5157394   7.9040413   4.1972713
 -17.8686409  -6.2648191   3.5064166 -16.9002686  -6.1425948   3.5341363
 -18.1332417  -5.3288703   3.5928159 -35.7733383  -6.6017966 -19.9120045
 -35.6835709  -6.8753347 -18.9822941 -35.5004692  -5.6673841 -19.8373699
  20.9972382  -1.2934316   4.3728137  21.4097157  -0.7212920   3.7031815
  21.3137321  -0.9142345   5.1831927  29.3724632  -1.7601097 -28.7373848
  29.8404331  -2.5915880 -28.3999119  29.7080708  -1.8047373 -29.6679211
 -16.9239960   4.5313897 -31.8357735 -17.7036667   4.0036035 -32.2002563
 -16.2854042   3.7286255 -31.7681618  10.5562820  -4.0026979  38.4858170
  10.7222662  -3.5639467  37.6144905   9.6183023  -3.7011929  38.6041603
  28.7578468  35.3540306  -8.4598837  29.2110367  35.8833275  -9.1738853
  28.4475288  36.1654282  -7.9414415   3.2035656 -13.8646870  14.2833614
   3.8846982 -14.3404055  13.7699203   2.7679179 -14.6119289  14.7903252
   0.6791823  37.4491997 -25.6903267   1.5660133  37.0860329 -25.4321270
   1.0057759  38.3154373 -25.9724236  29.6441555 -27.7534714  -2.1708694
  29.3735275 -28.0410423  -3.0459013  30.1473026 -26.9008102  -2.4016862
  10.6780787 -38.2596169  22.2310066  10.7926035 -37.8113556  23.1162796
   9.9323111 -37.7662888  21.8803272 -39.1156464 -10.8369770 -19.4517097
 -39.0580559 -10.2172413 -20.2020245 -39.2233887 -11.7162762 -19.8644161
   5.3626509 -37.6143188  27.9315300   4.8682356 -38.3432121  28.2902584
   6.2700319 -37.8264885  28.3404999  28.6519775  10.1621866   5.2638707
  29.3684235  10.2237520   5.9082241  28.8985939  10.8684978   4.6653628
  21.3352470  -0.8771620   8.0724096  21.4067688  -1.8295231   7.8101006
  21.7663670  -0.4222079   7.3909950  17.9046669 -39.0048180   1.9687821
  17.1971779 -39.0951042   1.2943764  18.3549232 -38.2517357   1.6628203
  34.2193680  38.5350151  -4.9440417  33.5619965  39.0196495  -5.5332737
  33.8904228  38.7662888  -4.0690832  39.1718521  19.9838409  18.5691681
  39.9005585  20.4870262  18.9842930  39.1175385  19.1465511  19.1250782
  -8.4712133 -21.6619549   3.6890943  -8.5773926 -22.5643921   3.9673276
  -9.0579185 -21.6769543   2.8920283  17.9172821 -28.2698040  -5.5893636
  18.3832302 -27.5503464  -6.1284747  18.4719505 -29.0486736  -5.8938050
   4.4856939   3.7814288 -47.2081871   4.8785367   2.9138374 -47.4873619
   5.1874471   4.3839884 -47.3707008 -38.2924881  -7.8639908   5.5509720
 -37.6129417  -7.2607870   5.3262653 -37.7768784  -8.6911554   5.7489281
  43.9266396 -17.0392227  -3.3170929  43.5177345 -16.3438263  -3.8729794
  44.4781685 -17.4941978  -3.9701350   0.8509033  42.5103149 -24.7367954
   0.0531342  43.0261154 -24.8070240   1.4825659  43.2091599 -24.5138474
  19.6822491 -34.0623093  27.1441631  19.2136478 -34.2906342  26.3245087
  18.9946575 -33.5548134  27.6002674  44.0135117  13.1331968  28.7035561
  44.2779694  12.6442919  27.9072742  44.7562866  12.9980526  29.2856636
   6.2445555 -24.2274284  -4.4003367   6.1396880 -25.0399437  -3.8913369
   6.8608751 -24.4307022  -5.0970702 -17.4620571   2.5502882  46.3239288
 -17.5127392   2.4011462  45.3502884 -16.7980614   3.2038610  46.4478951
  19.2410259   4.2330003  40.5630150  18.8070393   4.4401841  41.4165726
  19.9818935   4.8762751  40.5987854  34.2312050 -26.1175117  22.1399460
  33.6308708 -25.8229141  21.4053040  34.5447006 -26.9904499  21.6806507
 -21.7251644 -34.8305092  19.3326492 -21.0440025 -34.2784500  18.8877602
 -21.7302208 -35.5856705  18.6908474  27.6201096   3.9973011  39.9183769
  27.9847717   4.6538434  40.5306816  27.1759720   3.3907328  40.5667801
  14.2022467  46.9410858  -1.7033819  14.8281984  46.1786270  -1.9510772
  14.8662834  47.6598511  -1.6780065  29.5282612  17.9772434  -5.9074588
  30.3247585  17.6237698  -6.3723564  29.1896477  18.6351204  -6.5429702
 -39.8592110   1.2911640 -18.3525887 -39.1913834   1.2465305 -17.6153679
 -39.3303299   1.3813988 -19.1004810  13.9638882 -21.2982426 -25.0899544
  14.6207409 -20.7892590 -24.5234680  13.2213602 -21.3159409 -24.5708313
 -16.9394569  13.1441517  51.0294228 -16.5620537  13.0958576  51.9058075
 -16.9363003  12.2498436  50.6904793  29.9092579 -32.1579895  27.6462669
  29.3475113 -31.9479256  28.4152889  29.8173084 -31.3536434  27.0951061
  22.0719166 -20.4525013 -37.3005905  21.2247505 -19.9714050 -37.3314934
  22.4362545 -20.2647991 -38.1749115  16.8161449  -5.7870698  47.5202103
  17.1414356  -6.4921689  48.0679817  16.1374397  -6.2416072  46.9816818
 -17.7844944  16.5367413  32.8421898 -18.6179485  17.1087246  33.1019096
 -17.1366634  17.1847248  32.9593925  13.3005457 -38.3018799   4.2530260
  12.3788090 -38.3506966   4.5783548  13.7424879 -38.4067802   5.1287713
  -2.9934394  27.8553734 -38.5395775  -2.8034644  27.5271397 -39.4350662
  -3.1801994  26.9957294 -38.0770187  25.9909115  32.1785965 -21.1938286
  26.6187038  32.3510246 -21.8775959  25.7680683  31.2327728 -21.3575535
  38.1309700   5.5314813  13.0110207  38.4668083   6.4641376  13.0009546
  37.1907883   5.5883822  13.1553717  -9.3851929  -7.3989205  35.1807480
  -9.4983330  -6.4413314  35.0785065  -9.7619286  -7.5720143  36.0378418
 -35.3096886 -19.9421272 -19.1244640 -34.6764297 -19.1939392 -19.1803303
 -35.4871521 -19.8695850 -18.1433201 -16.1107330   4.1581616  32.1045036
 -16.2552357   5.1284180  31.9404335 -16.3217010   3.8375237  31.1704292
 -15.9451666  21.4767017  42.8761330 -16.5779686  21.5240059  42.1187363
 -15.2942429  20.8958015  42.5175858 -40.8793030   7.5230260   3.4735849
 -41.4106064   8.4019756   3.5767946 -40.2639503   7.6197124   4.2250414
 -26.6098804 -13.0524778 -11.2199507 -26.5486336 -13.6454124 -10.4371185
 -27.5528164 -12.8080111 -11.1721973 -33.7982483 -18.7817898  -9.4899235
 -34.4396706 -19.5201397  -9.2824125 -34.3632278 -18.0722218  -9.6151476
  24.0754013 -14.6187201  37.2743340  24.4011059 -14.4925375  38.2340240
  24.0533581 -15.5591288  37.2277985 -14.8078604 -16.2296734   4.2233925
 -13.9936380 -16.0200539   3.7870197 -15.1854477 -16.9263611   3.6423664
 -20.7273483 -13.6487112 -20.4364376 -20.6776810 -12.8429756 -19.8630791
 -19.9702625 -13.4532633 -20.9800148   4.1342854  -8.9123487 -20.8953743
   5.1101437  -8.8118391 -20.8489933   3.9605236  -8.4308863 -21.7102489
 -17.7774982  12.5981398 -35.7032776 -17.0521965  11.8848572 -35.7559967
 -17.2357712  13.3305740 -35.9471283  33.6014290 -24.8670311  13.6281013
  32.8231277 -25.4638882  13.3628206  33.4339447 -24.1288433  12.9285698
 -14.7394304  -1.9068904  -0.8832634 -14.6252232  -2.6249843  -0.2789622
 -15.6825018  -1.5888340  -0.6299377 -37.5034904  -2.5084193  11.5037413
 -36.5573769  -2.1791723  11.6535864 -37.3178101  -2.9556313  10.6423903
 -30.3781509   8.2684603 -26.9729271 -29.8477516   8.3774023 -26.1521263
 -31.0954227   7.7414546 -26.6528206 -42.9498940 -28.1810265  -8.5192204
 -42.4368668 -28.6513710  -7.8370090 -42.7842178 -27.2468777  -8.1595459
  -9.1402969  10.1653986  32.5388184  -8.2309027   9.8125687  32.6848717
  -9.0510941  11.0973558  32.6073265  -6.2558494 -27.7570496   2.9368081
  -6.1455045 -26.9862347   2.4418471  -5.3230605 -28.0994682   2.8903477
 -19.6928349  37.8764000  -2.3933563 -19.7097187  37.5732231  -3.3628035
 -19.1187954  37.2319489  -1.9883261 -25.3086128  -7.9592795  28.0141697
 -25.8597794  -7.8146510  28.8131771 -24.4747009  -8.2135248  28.4420910
 -22.5554752   8.3512535 -22.7606106 -22.6968517   8.9633503 -22.0643024
 -21.5610790   8.3477039 -22.7939472  39.1966705 -22.4537392   4.9665084
  39.0387917 -21.7457104   4.3907499  38.3257370 -22.5663013   5.3837633
 -32.9012146  28.8145618 -16.8868103 -32.5768166  28.8731937 -15.9491854
 -33.0047874  27.8559589 -16.9787769  13.4996958 -20.8350258  16.0678921
  14.1437559 -20.1747036  15.6197634  12.9400530 -20.1637821  16.5081196
  19.9872360  31.9705410 -16.5692711  19.4560089  31.2312012 -16.1972485
  19.5025673  32.2791138 -17.3316059 -39.8987503 -12.7319546 -27.6396351
 -40.2762260 -13.6185732 -27.8538322 -40.4469604 -12.1813984 -28.2471676
  13.8839369  13.4777451  11.0602055  13.9460268  14.4252062  11.3058681
  12.9804010  13.4118862  10.6993418 -21.3412819   7.4057417 -19.2982006
 -21.1162968   6.8112192 -20.0281048 -20.4552879   7.5107121 -18.8465691
  14.8522425   7.6514354 -21.1351643  14.7207375   8.2648211 -21.8807526
  15.4075708   7.0002031 -21.7238693  11.0832434  21.1705189 -36.3497925
  10.4837132  20.6821880 -36.9597893  11.4100733  20.4117050 -35.7946815
  -6.5633950  35.0519638  -4.7690473  -6.9929361  35.8629608  -4.6266298
  -7.2651491  34.4051094  -4.7394633 -21.8036861   0.9461815  43.1548843
 -21.2063026   1.7108144  42.9084702 -22.0547619   0.7333733  42.2024727
 -28.7154808 -28.1724072 -12.4814882 -29.0483150 -27.9960842 -11.5790291
 -29.4405727 -27.6751518 -12.9805441   3.2447793 -27.5679874  18.7110023
   2.8975711 -28.2867661  19.3538761   4.0408502 -27.3701859  19.2880344
 -10.1223984   7.6011605 -46.1926422 -11.0007172   8.0080357 -45.9180489
 -10.5158281   6.7337122 -46.4602852  29.7996578  40.0623894   6.4099827
  30.4177113  39.9153481   5.6056304  30.4660816  40.2725868   7.0887222
  -9.5467587  10.3392220   2.2352340  -9.0007248  10.3427124   1.4018332
 -10.4118271  10.6268988   1.8623145  -5.9021397  30.7619534  18.7512779
  -6.4753609  29.9931126  18.7394733  -5.6573038  30.7536278  19.7392807
  -5.1963530 -31.8451691  -4.8062758  -4.7772422 -32.5464516  -4.2906704
  -5.8442960 -32.3583870  -5.2880669  20.5471573 -27.0518875  20.8404503
  20.3548946 -26.9833241  21.8007660  20.0333481 -26.2612286  20.4965401
  22.8334961  12.7857847  -7.7361302  22.8940582  12.3973589  -8.6532116
  22.4961395  13.6425180  -7.9602661   8.9347553  -6.5343642  14.0574169
   8.3845015  -7.2614417  14.4382362   8.8462477  -6.7976365  13.1174488
  34.3774300 -17.4056320   0.7264240  34.6403313 -17.7853889   1.6355609
  34.3871956 -18.2511044   0.2459651  30.9813709  25.5890770 -15.6012192
  30.9855270  24.7489643 -15.0359049  31.3430729  26.1526070 -14.8315296
 -26.2881355 -14.5269699 -13.5577927 -26.4132328 -14.1110411 -12.6966991
 -26.0948544 -15.4367399 -13.3437452  23.8262215  10.0347290 -17.0395508
  22.8904266   9.6641836 -16.8559761  24.3019333   9.1595640 -17.0281143
 -29.7346878 -18.8684330 -29.6403542 -30.1682758 -19.5752277 -30.1746902
 -30.4525967 -18.1885490 -29.7443237 -18.7040806  16.5971813 -11.7421894
 -18.5470791  16.1261444 -10.8799610 -17.9506855  16.3630524 -12.2673979
   3.2034733 -22.9053497  35.1824722   2.3149123 -22.4589386  35.2827568
   3.6223264 -22.2246895  34.6037102  -7.6745081  10.4980755 -47.0098572
  -7.6212001   9.7269440 -46.4049225  -6.8175807  10.9249096 -46.7268372
   7.8956184  41.5027351   3.5498710   7.8821926  42.0846977   4.3379703
   7.7905474  40.6490593   4.0431437  -0.3136197 -28.8381977  -7.5489931
  -0.8517200 -28.5653877  -8.3690300  -0.2216886 -27.9844227  -7.0732584
 -37.9827881  17.1401711  23.4515591 -37.9633789  16.1795273  23.5721340
 -38.7713280  17.3427696  24.0712719  -1.5636036 -24.1486893 -21.1773453
  -1.9132009 -23.4663525 -21.7565899  -2.3305767 -24.5218906 -20.7552376
 -11.5412102 -48.6204681 -14.8371058 -12.3126621 -49.1385002 -15.0621576
 -10.9738607 -48.8275108 -15.6273384 -16.6039772  31.8134747  12.1117563
 -15.9120359  32.3365555  12.5784187 -17.2897015  31.6960182  12.8084326
 -33.1716232  16.8612213  33.8748817 -33.0158081  16.4795551  33.0346642
 -32.6761398  17.7000847  33.8735695 -22.0634193  32.7590256 -11.5479107
 -22.7504787  33.4180336 -11.3724489 -21.2866173  33.2651749 -11.4262962
  -2.2418673   1.9221640  10.1263990  -2.8329766   1.6747453  10.8871346
  -1.3368387   1.9435229  10.5926189  42.0227280 -14.3664999  -1.5670884
  42.4001465 -15.1230545  -1.0156425  42.8091469 -14.2277164  -2.2352102
  14.5075798  -5.0557547 -21.6959991  14.7642965  -5.4778700 -22.5388088
  13.6085386  -5.4662094 -21.6418610 -24.7470570  -9.9074459 -17.3666477
 -25.5499630  -9.5703363 -17.5858002 -24.7989941 -10.1297331 -16.4022980
  13.9888802 -17.6194496 -21.1335888  14.6331453 -16.9233990 -21.1464825
  13.1498899 -17.1242542 -21.1548290 -23.9372520 -12.4498692   2.7896008
 -23.1668739 -12.5209904   3.3520167 -24.6102600 -11.9993095   3.3399255
 -11.5670776  -1.5364041 -30.9066315 -11.6280098  -0.7723937 -30.1887894
 -11.2299414  -0.9943278 -31.6251774  -7.4972477 -16.4688034 -14.3197746
  -7.6583090 -17.1691799 -13.6893177  -6.7813578 -15.9340887 -13.9008570
  -5.4851036  17.3895359 -25.5217190  -5.2397404  16.4502811 -25.5576191
  -4.7657928  17.8848038 -25.9567032 -33.7339516 -12.5397968 -11.2063971
 -33.5812035 -11.7176971 -10.7222309 -34.6851196 -12.4152918 -11.4740238
 -11.2006750  -3.0957725 -33.9142838 -12.1155405  -3.1576724 -33.5971146
 -11.3260937  -3.1106055 -34.8562889 -35.9986572  20.6715603  26.8091297
 -36.3900948  21.1498127  27.5522995 -35.4263573  21.4084816  26.4056759
  22.4417839   1.4477360 -16.0056190  22.6422958   0.4497319 -16.0444317
  23.3134441   1.8095042 -16.2360592 -26.0925274   1.3929290  -5.5669909
 -26.4348869   2.2568836  -5.4535909 -25.8707371   1.4093271  -6.5512714
 -40.7273331 -33.5268707  11.8486071 -41.2814369 -33.4584579  12.6549911
 -41.4046211 -33.4040833  11.1555519 -31.8358822 -10.8320904 -22.2644081
 -31.9115543 -11.0344515 -21.2815189 -31.1338158 -11.5319309 -22.4341259
 -14.8263988  -5.2651148 -31.5669022 -15.3299103  -5.2485762 -30.7154636
 -13.8938532  -5.3745818 -31.2335453  -9.0416164  -0.8449593 -15.2868309
  -9.8353014  -0.3455192 -15.4224567  -9.3454981  -1.7694408 -15.5247965
  12.5453281 -39.6567230  10.3984909  11.6976757 -39.9637985  10.6884575
  12.5719538 -40.2063370   9.5450773 -41.8589821 -16.1944790  21.5816994
 -41.9847145 -17.1120625  21.7486210 -42.0213051 -15.8066549  22.4794197
  -8.5216866  19.9993362  14.3767214  -7.8439240  19.2730141  14.5301237
  -9.3125992  19.4637375  14.6377363  26.7604580 -33.0599174 -23.8598709
  25.8700485 -32.6910210 -23.8932323  26.6582203 -33.6865997 -23.0811081
  21.7172222  -4.4262362 -19.3491764  22.0727215  -4.5968513 -20.2831478
  21.0881252  -3.6988986 -19.6941929 -16.9425507 -43.2433586  -9.0075932
 -17.0736732 -44.2141647  -8.7855654 -17.5021935 -42.8064651  -8.2856703
 -12.0138111 -12.3390541 -16.4564228 -11.2944832 -12.7658243 -16.9532948
 -12.1973238 -11.5853195 -17.0393982  37.0372238 -11.1468019   4.5573797
  36.9599609 -11.7964859   3.8460274  36.9396744 -10.3264694   3.9945190
  35.7454376 -14.1932573   6.5216341  35.9145470 -13.4020920   7.0769134
  35.8031349 -14.8434792   7.2491698 -16.6610031   8.7622700 -16.2013721
 -17.1304913   8.7130222 -15.4145746 -17.0358257   8.0216131 -16.7270641
  18.8918915 -35.8662224   7.2856851  18.6853542 -35.0391235   6.8155713
  18.0391903 -36.3215981   7.2705865  11.5556421  -6.3919106  52.9775124
  10.8524342  -5.7190099  52.8214226  12.0488615  -5.8993621  53.6607742
  18.9075756 -30.7945156 -25.5928097  19.4015923 -31.2776737 -26.2688084
  18.1593857 -31.3600044 -25.3946171  -6.7134290 -18.2378578  31.1399746
  -7.2631741 -18.9268265  30.6714077  -5.9500518 -18.2315292  30.5157738
  -5.2196417  12.9284401  15.8428869  -4.9473829  11.9774475  15.7697783
  -4.5365410  13.3237963  15.2196627  -4.2746811 -24.5856056  -7.2763124
  -4.4264851 -25.5397778  -7.2868276  -3.5805469 -24.5601082  -6.5555406
 -10.7971516 -21.5617275  -6.8494396 -10.0309887 -22.0828514  -6.4875293
 -11.3431396 -21.6558380  -6.0386243   4.1033444 -33.8452148 -25.2264156
   3.9981489 -34.8162346 -25.0005875   5.0619626 -33.8198051 -25.1281643
  -8.6751099  10.0782022  20.7598629  -8.2966881   9.2596159  20.3798370
  -7.9107766  10.6696272  20.5519657 -11.2913818 -29.0114021  12.8916550
 -11.3995085 -29.9031315  13.2928648 -12.2179441 -28.7923985  12.6673841
  14.7461195 -12.4497929  51.9665260  14.1828375 -12.3205538  51.2119179
  15.0936346 -13.3821802  51.6922722 -15.2473450  35.2255516 -23.0364132
 -15.7667007  35.9871902 -23.2648449 -15.3651524  34.6444550 -23.8639832
 -23.4771843 -35.4728813  -9.8688545 -23.8666477 -35.1160316 -10.6950388
 -22.6011467 -35.0128784  -9.8274488  10.0746183  17.7364140  -3.0181892
   9.6755295  17.0737190  -2.3493826  10.8388443  17.9655342  -2.4364448
  18.6795197 -21.2942696 -15.0930300  18.5252666 -21.9804039 -14.3544588
  18.2270737 -21.8080101 -15.8011332 -35.1060829   3.7845297  25.4936409
 -34.1677475   3.8317318  25.6293621 -35.2652931   2.9526970  26.0341530
 -28.0361176  32.4496193 -29.2652073 -27.8568115  33.0442657 -28.5434895
 -27.1288071  32.0265007 -29.3925037  -4.9157915  14.8079996 -17.9644127
  -5.3528895  14.9708185 -17.0627518  -5.7626014  14.5203066 -18.4093742
  -7.6395464   4.4476304  52.8178864  -7.6809258   5.2502446  53.4209251
  -8.3021326   3.8869963  53.2605972 -11.5752420 -24.7832851   5.0774040
 -12.3560257 -25.1961994   5.5425062 -10.9310989 -25.5274220   5.2190056
  29.8697224 -17.6482811 -29.5136223  30.3347874 -18.5096397 -29.2341213
  29.2285480 -17.5864697 -28.8261833  29.5921669  -5.7851305  42.2961807
  29.1261063  -6.3905425  41.6067200  29.0294399  -6.0261045  43.0870705
   3.2039669 -45.6707573   8.6906366   2.9813089 -46.2672157   7.9621334
   4.1606994 -45.4845123   8.4668064  -4.5351305  35.0127831 -18.5923538
  -4.0336604  35.4903297 -19.3491802  -4.0321035  35.3966370 -17.8514080
 -12.1863747   9.4028730  35.2985153 -12.5782528   9.0484209  36.1184692
 -12.5509348   8.7736835  34.7110596  15.9587212   4.1073141 -25.1008854
  16.6430244   4.4822903 -25.7369289  16.5038204   3.3529041 -24.7568779
 -34.5969086 -37.4323807 -10.3313580 -35.1289673 -37.1409225 -11.1604815
 -33.6910172 -37.1208954 -10.6427641  41.1429787  15.3183861  22.9185677
  41.0837936  15.4585934  21.9731922  41.8415070  14.6635447  23.0085983
  41.6099129  12.1707869 -20.2039337  40.9452477  12.5720873 -20.7821293
  41.5560226  11.1799946 -20.4421196 -28.0209045  31.7726936  20.5327473
 -27.7192287  30.8708611  20.4894867 -28.4981709  31.7579422  21.3934803
 -25.1786957  -0.9009382   1.5962962 -25.0341969  -1.7398065   1.9915428
 -26.1294155  -0.9242293   1.3641803 -29.0930901  28.5795059 -18.8260002
 -28.9788818  29.5015068 -19.1169453 -28.9219761  28.0757275 -19.6622620
  25.0450249 -17.3387012  21.6316280  25.1727009 -17.9229355  22.4352665
  24.8169518 -18.0505753  20.9781551 -41.6114197 -33.4434814  -8.7928371
 -41.0966415 -34.0631332  -9.3617811 -41.1106491 -32.6190262  -9.1028032
   1.8832673  24.7753029  -8.6467686   1.4079860  24.0383778  -9.1343670
   2.0223262  24.3195782  -7.7902074   2.2696843 -21.8714466  31.9087563
   1.8815969 -21.0802822  31.4175415   1.4638290 -22.2663307  32.2518845
 -27.7715836  -2.2540691  13.1583881 -28.3851452  -1.6341932  12.6981821
 -27.6797752  -1.7187691  13.9705639  20.0512257  33.7204628   6.8304033
  19.3379364  33.2692184   7.3748822  20.4742088  34.1798744   7.5400276
  -9.9336662 -23.2541637 -15.4706163 -10.7466173 -23.0868969 -16.0040569
  -9.2797174 -23.4067326 -16.2163467 -21.9276543  22.8449440  15.7290363
 -21.5197182  21.9907780  16.0147343 -22.4349842  22.5093517  14.9679852
  24.6663990  -9.1199551 -15.1533546  25.1197224  -9.4276838 -15.9309378
  23.7701778  -9.4553108 -15.2369785  10.5537777   3.4066501 -34.5741882
  10.7520208   4.0981274 -33.8729820   9.6257753   3.5712488 -34.7697067
  13.3989201 -21.5398998 -36.6773643  13.0102854 -22.3262959 -36.2733803
  13.7633438 -21.7815018 -37.4656296  20.7207565  -0.2204192  -1.2151716
  19.8802605   0.2327880  -1.1374168  21.3100643   0.5047316  -1.5266931
 -15.9232187  38.9682388   2.8635142 -14.9957600  39.2576714   2.7875361
 -15.8102407  37.9737129   2.9216912   2.8132389  -1.2260424  30.0216007
   2.5102675  -1.9599961  29.4678631   2.1694231  -1.2141069  30.7351608
  -8.3715868  10.9886856 -13.3925390  -7.4761405  10.8564301 -12.9806528
  -8.0856724  11.0507965 -14.3182001  10.8375683  31.9412670   3.0940986
   9.8966255  32.1360741   3.0369518  10.8179016  31.0111561   3.4735794
  35.7393646  16.0458336 -15.1283855  35.9846687  15.9901810 -14.1736469
  34.8530464  16.5173588 -15.0404472   7.8396130  -9.1739941 -50.5703430
   7.7098794  -9.7719879 -51.3090477   8.6426287  -8.6769629 -50.8466682
  23.1074753  -0.8217651  20.5328789  23.0881844   0.1388181  20.7837276
  23.7935696  -1.1619349  21.1261387 -23.0612240  26.2315102  25.1296139
 -22.8081665  27.1522198  25.4072323 -23.9105930  26.1755314  25.5919971
 -15.9254808  -2.1606936   5.4592586 -16.1641636  -2.5335398   4.5966210
 -16.6142292  -2.5857022   6.0678372   6.7175870 -20.5840874 -19.5575867
   7.4305124 -20.0751457 -19.0734196   7.2942872 -21.0554104 -20.1461811
  37.5378036 -32.5440674  13.9364862  36.8011246 -32.6569405  14.5494156
  37.0885162 -32.5562019  13.0934010 -22.8772678 -19.3025093 -26.4551620
 -23.1388493 -19.0988350 -27.3823528 -23.7620850 -19.4077358 -26.0586166
  43.1358643   3.6713004  22.1760120  43.8288574   3.5422149  21.4719868
  42.6863556   2.8425043  22.1276131   8.4123173  27.5347080  15.3171225
   8.9799690  26.8138065  15.5752897   7.8039732  27.6040459  16.0884247
  -5.9213490 -39.4963684   7.9949107  -6.6150889 -38.8200645   8.3065281
  -5.4280243 -39.5071907   8.8454361  24.6539116  24.3612328   7.5395918
  24.9083347  23.4354477   7.3821106  24.3124084  24.3708801   8.4306622
 -11.6152620   7.5402651 -20.4858952 -11.5071459   6.9334660 -21.2448845
 -11.9985971   8.3203716 -20.8862171  22.3525448  -6.6231294  46.3160896
  23.0022182  -7.3539262  46.0527077  21.7717361  -6.6978698  45.5411530
   9.2898207 -11.1712427  50.8458252   8.7403727 -11.0884314  50.0814323
  10.0051527 -10.5327654  50.5346947  39.7089005  11.0290327   6.6313491
  39.1635170  10.3078527   6.2092471  39.3942261  10.9189634   7.5494261
 -39.2381859  26.7201252  -0.2807450 -39.6904182  25.8849602  -0.2402825
 -39.5914955  27.3022804   0.3525786  11.6356506  -8.4087887  31.1231422
  11.1436415  -7.5671825  31.2135048  10.9678001  -8.9765615  30.7390575
 -33.3034477  20.9162579  -9.1698284 -34.0430603  20.5572758  -9.6300373
 -32.8271675  21.4326458  -9.8778563  37.3116302  35.5049782  -9.5609522
  37.6646957  35.1226006 -10.3547678  37.0339622  34.6520844  -9.0717783
 -29.7866039  -6.9002895 -15.8763161 -29.5842304  -7.3614836 -16.7007866
 -30.6529045  -7.3196902 -15.6853848  10.5202494  43.8423386 -10.0005589
  10.3294735  44.6772766  -9.5661993  11.4614353  43.9169540 -10.2076921
  18.2366734 -13.2045298  21.7275848  17.7326908 -12.5117502  21.2388000
  18.8767815 -12.6014214  22.1473541   8.8331337  -0.9883370   0.2611673
   7.8448334  -1.2214556  -0.0270308   9.2878990  -1.7032720  -0.2056339
  11.9424047 -10.1760340 -15.3110981  11.2331791  -9.7533159 -14.7881346
  11.5123491 -10.3807583 -16.1411285 -19.9081478 -11.3527231  22.5495701
 -19.9192238 -10.6991835  23.2950363 -20.4583931 -12.0480576  22.8988476
  15.9919319  30.5424709  13.5802298  16.7125187  31.1467819  13.8442192
  16.3704052  29.7133732  13.5966082  -4.8158412  15.6790199 -21.8261185
  -5.6257844  15.9614725 -21.2935696  -4.4534883  16.5513706 -22.0917168
 -31.9906216  -3.1950941  12.8047180 -31.9707146  -3.4839418  11.8660202
 -32.5205956  -3.8801885  13.2415781 -15.6632948  24.4190521 -24.5708122
 -15.4050503  24.6866875 -25.4883881 -15.6951704  23.4318714 -24.7223969
 -21.2246189  18.6270103  41.1303978 -21.5268059  19.4336739  41.5393600
 -20.2847939  18.5687523  41.4457397   9.6685905  14.8300772  23.4688911
   9.9033194  15.7701645  23.2257481  10.6521187  14.5049658  23.4445763
  19.1894131  20.0622730  34.9043274  20.1010170  19.8068008  35.1210480
  19.2295971  20.1947517  33.9858780  24.3174706 -18.6041107  10.2667198
  24.5335751 -18.5272961  11.2268400  23.7326851 -19.3889103  10.2596025
  34.5348701  33.3046150   1.9428612  35.3990707  33.7306290   1.6355669
  33.9863129  33.6784439   1.2416368  25.3989124  19.2189503 -21.4125957
  25.3652935  18.2678890 -21.1998291  25.7279339  19.2699108 -22.3187027
 -33.5875931  34.4432716  17.8573761 -33.1316566  34.2249374  18.6585941
 -33.2155838  35.3061829  17.6679821   6.6659107   6.4991660  -0.5190042
   6.6437907   7.4731402  -0.8099278   5.7252336   6.4128556  -0.3113159
   6.6051469 -14.9659843  33.7979431   7.5951080 -14.8085041  33.8952560
   6.4690886 -14.5010052  32.9624519  11.2228279  -5.9038396   5.0199361
  11.5491409  -5.0405679   4.6426315  10.3091564  -5.6421905   5.3349662
 -16.9799957  -9.4106455  -5.8614230 -16.9175911  -8.5917931  -6.3408375
 -16.2227840  -9.3944197  -5.3161817   9.5132618 -35.0472832 -18.7456493
   9.8337097 -34.8656387 -17.8445415   9.1503029 -35.9412613 -18.6141453
 -15.6743822 -41.3253670 -18.2337456 -15.3955784 -40.7353058 -18.9813309
 -16.2053261 -40.6507225 -17.7037697   4.3584151  24.4060535  25.8073959
   3.5227039  24.8763561  25.7810287   4.1577139  23.5091076  25.5254784
 -44.3135910 -24.4348965  21.2757092 -43.4286613 -24.7717171  21.3852005
 -44.6782684 -25.1489449  20.6938744  16.5997486 -13.1380424  24.0723400
  17.1719246 -13.1086779  23.2612286  17.1479378 -12.6188679  24.6748409
  15.7302780  29.6194668 -11.5576210  15.3818398  30.4788761 -11.9875774
  15.6679296  28.9968681 -12.3442383 -40.7844353  -8.7802029  27.3793011
 -39.9851952  -9.4041357  27.5271702 -40.9194107  -8.4775629  28.3337631
  21.3785667  43.6713638  14.8287640  21.4516621  43.6913185  15.7864428
  21.9333801  42.9008408  14.5295296  28.7558651 -30.2404938 -10.8398142
  29.1836853 -31.0262890 -10.5616398  29.1063118 -29.9837704 -11.6552544
   3.1199002 -20.3430843  27.7236710   3.6432278 -20.6682262  26.9526463
   3.0549731 -21.0752640  28.3198357 -37.7211876  10.0957127 -36.0713348
 -36.9544945   9.6479692 -35.6696930 -38.3543625   9.3403416 -36.1869125
  43.1193428   4.8896379  -6.9986029  42.9213066   5.3720016  -6.2129607
  42.4407272   5.2604065  -7.6855755 -22.1482506  22.0872536  -0.7124571
 -21.3126755  22.3498363  -0.2451834 -22.7695923  22.0746441   0.0518833
 -15.6905394   3.6367075  29.4038734 -15.7835169   4.4864826  28.9001884
 -14.7901182   3.7762566  29.8009701 -19.3508320  23.2614174  34.0089607
 -18.6171970  23.8511543  33.9540062 -20.1078510  23.7951145  33.6987000
  -2.3769042 -28.9385204  28.7393227  -2.9767003 -28.9693260  29.5337944
  -1.6013037 -29.2916641  29.2298355  30.0938931   7.7854118  26.8588371
  29.4557285   8.5329456  26.7624817  30.3710995   7.9566741  27.7653275
 -17.9540977 -29.9778004  27.5953064 -18.8101559 -30.3252602  27.1870117
 -18.0657597 -30.3331795  28.5000992 -20.2494450  22.2570038 -30.2222309
 -20.1396484  23.1998348 -30.0545845 -20.6691456  21.9597855 -29.3775444
 -13.4135065  28.9163895 -38.5441208 -13.1660852  28.2354450 -39.1649895
 -13.7511387  29.6057434 -39.1206512 -12.5270710  22.6612186  42.4393883
 -12.5911579  22.2107830  43.2854576 -12.9895334  23.4940872  42.6520462
 -11.6767502  -2.4267123  -5.8448730 -11.9513836  -3.3036990  -5.4151635
 -11.7458429  -1.8752977  -4.9470167  22.4299450  32.0367279  14.2894764
  22.1512375  33.0334854  14.3282318  21.8017216  31.8324413  13.6019373
  27.2705040  -8.2937975 -41.6395302  28.0814648  -7.9181032 -42.0754471
  27.0242310  -7.6082678 -40.9749947  23.1114941 -12.4397221 -22.1166439
  23.0796814 -13.2254772 -22.7237606  24.0434132 -12.1469240 -22.3045025
   7.8732786 -42.2025185  12.1559973   8.0103903 -43.1485176  12.5002975
   7.4246817 -41.7718201  12.9109755  13.0639305 -33.0491791 -28.9283867
  13.6901836 -32.9221916 -28.2232628  13.5487099 -33.0868607 -29.7369175
  -8.7447491  -2.8040252  33.4485283  -8.0567207  -2.2478399  32.9770584
  -9.4329796  -2.0574093  33.4358139 -28.7821636   9.9265280 -15.5714703
 -29.3277016  10.7250261 -15.7098045 -28.0209579  10.1122599 -16.0899734
   8.3606510  -0.2393386 -39.8436165   9.1376486  -0.6232304 -40.4079933
   8.6651449   0.6844230 -39.7297325   4.1049242  23.6223774 -27.4884396
   4.3116465  23.4560986 -28.3952236   3.2220049  24.0367680 -27.5788174
  11.5235252 -31.9716320  10.8054285  11.9987593 -31.2044773  10.4258766
  12.1113653 -32.6963196  10.4046974  12.4013338 -29.6618576 -42.1146927
  12.8156376 -28.8872719 -42.4453278  12.7186346 -29.8568916 -41.2190094
 -35.4218636  -9.9961157  11.9640608 -35.9380608 -10.1125832  11.1194401
 -36.0896988  -9.5033560  12.4720955  -7.7732983  24.5803318  28.6352787
  -6.9494939  24.9338284  29.0821991  -7.5867515  24.9091072  27.7071018
   9.9536934  -8.6476851 -46.6256943  10.8213224  -8.9802599 -46.7822762
  10.1270733  -7.7255135 -46.3421326 -15.8923016 -35.5353699 -22.4835014
 -15.5902710 -35.1499100 -23.3365726 -15.2127123 -36.2422371 -22.3782749
  17.1319466 -29.9853020  27.8990364  17.4824085 -29.0793037  27.6359921
  17.8802795 -30.3225670  28.4309444   9.9230700   6.7424250   2.2155511
  10.5206423   7.0292907   2.9734068  10.5052309   6.0948920   1.8447323
  36.0873413 -27.2186279   7.8029656  36.9834023 -27.3758335   7.5630260
  35.5989799 -28.0409565   7.4517865 -21.5446377  25.1128674 -18.7897205
 -22.1595306  24.8777122 -19.5373363 -22.0263805  25.8340130 -18.3581009
 -17.3864861  17.3258095 -24.9169044 -18.2221394  17.3886013 -24.3517971
 -17.3208237  16.4005890 -25.0624466  29.1051712 -27.5232143  10.6851864
  29.7477779 -27.3574371   9.9546366  28.7578125 -26.5859375  10.7986135
  38.0419540 -32.9352226   1.6556345  37.5246582 -33.6042938   2.1464672
  37.8130035 -33.1604042   0.6917025  33.5686226  25.2168388  13.0679588
  33.3582039  26.1801434  12.9342842  34.5614967  25.3013039  12.9125557
 -40.1221581  -9.7067327 -24.4734001 -39.7644997  -9.4835615 -25.3711796
 -41.0371780 -10.0187054 -24.7084103   7.8278799  47.4888268 -21.9152222
   7.6153445  46.6003227 -21.6186275   7.5187397  47.9309692 -21.1016922
   2.4879770   3.5508804 -45.3637657   2.0968499   4.3109403 -44.9284286
   3.0756910   3.9762139 -46.0081291 -15.2562456  28.0844688 -36.4540024
 -14.4591370  28.3736057 -36.0011368 -14.9127588  27.6795998 -37.2363014
  -3.5982952 -36.4428177  -4.8922591  -3.0914197 -35.7197990  -5.2875409
  -4.2733455 -36.5830612  -5.6567841 -16.4420395 -31.8624249  -2.9569016
 -17.3518848 -31.8572407  -3.3129470 -16.2626343 -32.8397484  -3.0003843
  21.9072456   6.2310452  28.9836788  22.5704517   5.5791607  28.7275543
  21.6740932   6.6471872  28.1279469 -34.6313248 -27.6882706 -19.5200500
 -34.4724846 -26.7675915 -19.8463211 -35.2339439 -28.0104923 -20.1946125
  41.4654617   8.3553858 -14.3600197  41.3857155   8.4449472 -15.3364820
  41.1039085   7.4106441 -14.2656136  -6.1085730 -19.4224625  23.2451878
  -6.3586478 -19.4337044  22.2951756  -6.3361034 -20.3484554  23.5715618
 -12.7556343  12.0901623  12.0398626 -13.1036310  12.4198437  12.9068069
 -11.8555050  12.3934050  12.1382074 -22.4079304  -0.4489246  -8.6109076
 -22.3623676  -0.3222419  -7.6691861 -22.1464367   0.4168994  -8.9500256
  -9.0097923 -26.7384052  32.8266335  -9.4444723 -25.8627491  32.9924088
  -8.1544456 -26.3796425  32.4376030   1.0402769 -29.6861134 -15.7291613
   1.2995198 -29.1601734 -14.9574308   0.0890221 -29.4472256 -15.8025551
 -26.9062920  20.7628174 -21.7294827 -27.0666084  21.3134918 -22.5733490
 -26.5039043  19.9953098 -22.1918888   3.2279046  22.0419426  10.4556961
   2.7701292  21.9103508  11.3026094   2.4019127  22.3167782   9.9080839
  21.5649605   7.7235475  36.9215851  22.2430000   7.0662422  36.6581726
  20.7566891   7.2619786  36.6806030  24.5716972  -9.6737490  33.3946495
  25.3809280  -9.1525364  33.1661377  24.2385426  -9.7664957  32.4568977
  42.4077835 -27.0354538  10.8138857  42.0229568 -26.2311401  11.2979488
  42.3985176 -27.6246548  11.5756483   6.0844188 -21.5826797  43.2829552
   5.4937944 -21.8751965  44.0673790   6.9342933 -21.4228230  43.7794838
 -38.6007767  24.2088966  -2.7695479 -38.2154121  24.0457420  -3.6499348
 -38.4210892  23.4201164  -2.3115594  -6.1582861 -20.0068398   3.7647479
  -6.9023919 -20.6975899   3.6489968  -6.5866714 -19.5131664   4.5209112
 -36.6613350  -6.4805646  16.6953182 -36.4430923  -6.3437443  15.7521362
 -36.7823639  -5.6078491  17.0346298 -12.4216824 -46.4194756  -6.4448576
 -12.0943441 -45.6498566  -6.9657226 -13.3397465 -46.1164284  -6.3518901
  11.5696030   0.6836649  37.4559669  12.2645550   0.2752967  36.9102707
  10.7881079   0.5617498  36.8471298 -15.6154871 -26.7380829   1.0308129
 -16.3758430 -26.6552963   0.4840802 -15.4171801 -25.8050499   1.2058330
  -0.1288389 -30.5579872  20.7253456  -0.4899392 -30.8573952  19.8637829
  -0.6888887 -31.0687523  21.3939781  18.5272942 -15.8969450  22.0136776
  18.6534500 -15.7005205  22.9376698  18.3228302 -14.9929533  21.6682472
  17.7126389  23.1240463   7.7913966  17.7655716  22.2849827   8.2915230
  17.6013718  22.6906052   6.9116230  12.2108746 -34.1833038  37.2502823
  11.4586687 -34.7036133  36.7837257  11.6350336 -33.4989662  37.6698875
   2.0997272  14.2224178  -1.0305548   3.0827112  14.3133574  -0.9735343
   1.8645722  15.0872402  -1.3911767 -39.9606133  11.8203859 -13.8407221
 -39.5200043  11.5486221 -13.0249186 -40.0278854  12.7607565 -13.7514849
  -4.0179014 -41.0312729 -22.6824379  -3.5873260 -41.6797867 -22.0556870
  -3.4867165 -40.2434998 -22.4549084   0.7207164  38.6896782  -7.1570764
  -0.1097107  38.2204628  -6.9486933   0.5567060  38.9019051  -8.0954103
 -35.5467720 -34.8955803  11.4363174 -35.3446884 -35.1377487  12.3683310
 -35.6400719 -33.9667702  11.5281668 -28.9627304  18.1581230  29.2932205
 -28.1408234  17.7805500  29.6400509 -29.2910767  17.3618603  28.7812767
 -42.8863831 -17.4192848 -15.8416023 -42.2428818 -16.7500687 -15.5160627
 -42.6660385 -17.4085045 -16.7726269  21.2840424   9.6463032  13.7656918
  21.2233467  10.1147051  14.6526041  20.6655884   8.9033728  13.9274092
 -21.3267937  20.8034534  42.3608360 -21.1075001  21.1561451  43.2278328
 -21.4307461  21.6299305  41.8400116 -32.4757423 -26.4825306 -11.7104273
 -31.8027573 -27.0127182 -11.2646284 -31.8484688 -25.7093239 -11.9860973
 -17.3914509 -39.6126251   6.6179538 -16.4870605 -39.2136650   6.6339750
 -17.8663502 -39.0120583   7.2049761 -30.4126682   8.4499931  35.4641418
 -29.8408470   7.8838296  34.9445496 -30.7468033   9.0340853  34.7596207
 -29.2382011  -1.7348868  26.4556980 -29.1776943  -2.2817042  27.2595921
 -30.0888176  -1.2835710  26.5845470  38.7197037  -0.2158126  19.5366192
  38.6217461  -0.3426378  20.5014286  39.6416931  -0.4964895  19.3786545
   6.0560336  -9.1874933 -34.7051277   6.3693814  -8.6962595 -35.4984932
   6.1262760  -8.4444828 -34.0652733 -16.3863754   6.2554255   7.1209822
 -15.4294348   5.9542494   7.1294041 -16.7688351   5.7379160   7.8570752
  10.6986418  49.8361015  16.9488525  10.8631086  49.1934166  17.6922131
  11.6022482  50.2592506  16.9734325   5.1045728  19.0020428 -29.3548508
   5.9678645  19.4450016 -28.9779434   5.2645450  19.3066387 -30.2775650
 -29.5661449  -5.6366210   1.3729560 -30.5192032  -5.6748085   1.4489508
 -29.2774429  -5.3625693   2.2302301  16.7766895 -38.9066048  22.1467152
  17.6902599 -39.3164444  21.8903637  16.1928368 -39.5675087  21.8045940
  36.0904388   8.7906427  10.3703089  35.5753670   8.0734205  10.8229475
  36.9548836   8.3537426  10.4904480  -6.9189148 -30.9557552  18.9048595
  -7.0689139 -29.9591160  18.8680210  -7.7931857 -31.3297119  18.7884502
 -18.2718410   4.0190005 -19.3688202 -18.5144234   3.2978249 -18.7341480
 -17.3173008   4.2040124 -19.0817547  20.3824654   3.9625862  36.6083603
  19.8820934   3.2791328  36.9796257  21.3071995   3.8395011  36.9143333
   3.7827439 -25.4705105 -16.7953663   2.8556571 -25.2364864 -16.9325294
   3.8957295 -25.0770206 -15.8603821 -19.5996418 -30.0791187 -21.7639313
 -19.4677868 -29.2451839 -21.2350502 -19.9079590 -30.6244755 -20.9858398
 -20.6790180  -2.5019495  22.7102108 -20.4972630  -2.0423455  23.5203400
 -20.0489120  -2.1106699  22.1015644  37.8231392   8.5896235  29.5844784
  38.5748444   9.2026186  29.9885406  37.2854767   9.2968569  29.2609348
  35.9564743 -24.7242947  14.8655605  36.5508919 -24.5650501  14.1407709
  35.1101494 -24.8150463  14.3999882 -13.2543154  37.0302429  10.0458221
 -13.4717569  37.9571991   9.7939405 -13.4310713  36.6315956   9.1122408
  33.9287796  11.6240864 -10.8797474  34.4734306  12.3805008 -10.6152678
  34.4606476  11.1123056 -11.4386435  -2.0617356   5.1565351  12.1273928
  -1.2491312   4.6187820  12.3133144  -1.7653837   5.9866147  12.5303411
 -24.4969082 -22.0307903 -26.1710377 -24.3011265 -21.7490387 -27.1062889
 -25.4273605 -21.7389622 -26.1155815  -9.7338228  28.4721375 -12.7302799
 -10.4737158  28.7100887 -12.1196327 -10.0199604  29.0477600 -13.5274954
  29.8081989 -11.1367035  23.8913174  29.7051373 -10.5952368  24.7329979
  30.2331734 -11.9226332  24.2732468   6.3346219 -32.7787895   1.4637334
   7.0386996 -32.8508453   2.1359406   6.1536188 -33.7346077   1.2429335
  20.2648659 -10.5641651  37.3962860  19.9876556  -9.9090967  36.6787987
  19.5169487 -10.3997488  38.0412483  -1.4475962  -8.8866892 -47.1335182
  -0.9246898  -8.6020060 -47.9563332  -0.9150122  -8.4027872 -46.4707909
   5.4071360 -44.6359711 -24.1538734   5.2840552 -45.5850410 -23.9541359
   6.1356058 -44.4388428 -23.5319786  -6.1157913  -9.9210587  24.7784557
  -5.6796784  -9.3616705  25.3770027  -6.4466872 -10.6569681  25.3624229
  25.6412449  -9.9482069  36.6986008  26.2716026 -10.3511457  36.0182419
  24.8220730 -10.4444599  36.4514236  22.5099583 -29.8641739  31.1588249
  22.6237068 -30.3039150  32.0750427  22.0232849 -30.6302299  30.7879982
   3.0022602 -25.5656109 -11.7305870   2.9034543 -26.4833565 -11.4161196
   3.1739521 -25.1019001 -10.9004602 -28.2752056 -18.1428280 -13.3325739
 -28.6880341 -17.8623142 -12.4651947 -27.3456802 -17.9841518 -13.1971474
 -35.8546600   8.4539757 -35.1848526 -36.2998009   7.6723766 -34.7952843
 -34.9640617   8.0449829 -35.4587708 -42.2700043 -31.5713654   2.6057792
 -42.1575127 -30.6213379   2.3835504 -42.0880280 -31.9517746   1.6944405
 -30.7375832   2.6825469 -35.3687439 -30.6527309   1.9157363 -34.8137894
 -30.7905483   3.4275391 -34.6788712  19.6315441  38.1447182 -23.7236557
  19.6890125  37.6503525 -24.5291386  20.5074844  37.9353752 -23.3578815
 -37.0912781   9.8548365  27.7032433 -37.6625099  10.6027107  27.6782722
 -37.4242477   9.2040243  27.0699863 -15.1239300   2.5516224 -31.3947830
 -14.9798546   1.7363296 -31.9802246 -14.7184887   2.1752527 -30.5496197
 -15.2591028  16.6591587 -18.7700844 -15.7778263  17.5531330 -18.8608418
 -15.7678146  16.4385147 -17.9156322  12.3551445  33.0060730  24.7552986
  12.1695108  32.6299324  23.8913269  11.5633965  32.7665443  25.3028889
 -29.4674377 -28.5353374  -5.5800676 -28.7261848 -28.7204895  -4.9387312
 -29.3393459 -29.2903767  -6.1989083 -21.2679253   6.3616614 -33.2579155
 -20.5063457   6.9090271 -33.0248795 -21.9074783   6.6227798 -32.5124245
 -18.9282932  18.3315754  29.4357948 -18.7276020  19.0954208  28.8559189
 -19.6479797  18.6917019  29.9290009  11.5100155   8.3579741  -7.9332476
  11.7224951   7.4542561  -7.8602457  12.0298471   8.6625738  -8.6802378
 -30.5125370  22.0533676  -0.4643883 -29.9910164  21.2273006  -0.2924379
 -30.0344410  22.3398094  -1.2305821 -12.1535711  36.3431625  17.9583168
 -11.1961145  36.3964691  18.0365849 -12.2574625  35.4363136  17.7062855
  12.1403790 -18.3680687  34.9940300  11.5416069 -17.5900898  35.3307152
  12.4465113 -18.6071262  35.9269943  22.8946648  22.4236889  26.6965771
  22.5214691  22.2425880  27.5966225  23.7452183  21.9420280  26.8161030
 -23.6916580  12.1150446 -33.7988777 -23.4132843  12.7246065 -33.1164169
 -24.4269829  11.5826654 -33.3106804  -2.2739408 -36.8518143 -26.1797276
  -3.1666362 -37.1169662 -25.7455406  -1.8965831 -36.3506737 -25.4485035
  -8.6503468  16.7447109  25.4759426  -9.5786848  16.6104298  25.2260532
  -8.3097811  15.8697453  25.6262169 -15.8328419 -15.4444094  36.3755569
 -16.8261127 -15.3504667  36.2768021 -15.7256908 -16.3646488  36.1369476
   5.7650070 -13.9761143 -39.1063271   6.1356368 -14.4609194 -39.8512306
   6.4400864 -13.2912741 -38.9645882   1.6107692 -22.2974682  19.8136368
   1.2881685 -23.0893059  20.3424320   2.0823979 -22.7943230  19.1009674
  41.7659798 -16.1217213  23.0946598  41.8756485 -16.7620392  23.7853966
  41.3185272 -16.6217022  22.3900757   3.8705709  44.2306519  19.4318447
   4.8054252  44.0770340  19.5192146   3.6156976  43.8617477  18.5634422
   1.0443039  11.0731802 -43.6863174   0.2734920  10.8451290 -44.2872353
   1.7855842  10.9907789 -44.2651558 -11.2007427   4.8026004  31.8902054
 -10.5700626   4.0931597  32.1528015 -10.5427933   5.5106444  31.8777370
   8.5072165 -20.9430523  19.6338692   8.0477142 -20.8519783  18.7814331
   7.8278322 -21.4190884  20.1470318  28.5484848  17.9354057  31.1768951
  29.0243359  18.0163231  31.9970551  28.9784946  17.1456051  30.7020302
  40.1639290 -22.7619724  25.5478573  40.7038269 -22.8386879  26.3918991
  39.3332024 -23.2207584  25.8008404  23.0082245  23.7371387  -4.8862581
  23.8201866  23.2047119  -4.9727573  22.7915478  23.7504711  -3.9266181
  40.8874397 -25.0038071  -1.0965403  40.9576035 -25.7233429  -1.7583753
  41.8235970 -24.9593067  -0.8928575  16.3500919  11.0230541 -30.6335430
  16.4623470  10.4703245 -29.8671799  17.0975723  11.6519728 -30.5429115
  18.6698151  23.9974823  -5.5401692  17.8710575  23.7601204  -5.9899049
  18.8570557  24.8697109  -5.9836254  38.0812721   6.1910305  26.3849888
  38.6035690   7.0004988  26.4455700  37.7543411   6.1565824  25.4877892
   7.4150314  35.2436295  26.4513588   7.2955275  35.6819000  25.5851059
   6.4651475  35.2246170  26.7164974 -10.8976030  35.3844299  13.0915365
 -10.2924719  35.4683075  13.8824015 -11.7709274  35.2610512  13.5832243
 -15.5863914 -18.6888008 -22.8852673 -16.5377350 -18.7343235 -23.0791607
 -15.5266399 -19.5103226 -22.3103104  18.2923832   0.8393980  -0.0426250
  18.7243538   0.9557542   0.8323476  17.3898697   0.8486117   0.1414188
  22.4547901  -2.7081716  26.6355457  22.5649986  -3.4685791  27.2993298
  21.5110512  -2.8955607  26.4221687  28.6673222   5.3392458  12.1805477
  29.1695385   4.5163651  12.4501820  27.9751682   4.9596639  11.6599131
  -3.3522522 -16.1935291  32.4992485  -3.9625478 -16.1021538  33.3044281
  -3.9011166 -15.9168634  31.8283539  -0.4554359 -33.3043709 -20.6101704
  -1.4064242 -33.2089882 -20.7144127  -0.2877599 -32.7304268 -19.8596783
  13.2027140   3.3597422 -23.3488350  12.6454115   4.1043420 -23.0526733
  13.9278736   3.5091166 -22.6800003   7.8245959   0.6058934   9.5197840
   7.3924260   0.8611099  10.3322554   8.7008009   1.0830253   9.6489449
  24.6869774   7.3693576  12.4352837  25.1478634   8.1284752  11.9853773
  24.4110565   6.8678803  11.6468678  16.7497921  38.5101852  -7.9169173
  16.7726650  38.4038277  -6.9198742  15.7666864  38.7874222  -7.9353366
  14.2364206  17.4396515  32.0971375  14.1567822  18.2898273  32.5475082
  13.8115816  16.8358536  32.7492142  -8.4667215 -20.6848583  10.6716928
  -7.9061103 -21.1487732  11.3101864  -7.8031607 -20.0134335  10.4420662
  -3.2072313   7.1324310  30.7035484  -3.5812044   6.3447185  31.1214275
  -2.5977004   6.8066649  30.1057491   4.1492834 -35.0795364  -7.3963189
   3.4267843 -34.6692963  -6.8763351   3.7413547 -35.2903671  -8.2607775
  26.1955280 -33.4347458  17.7503090  25.6467438 -32.9526367  17.1061077
  25.5843964 -34.1750412  17.9415359  15.0991135 -17.5137558  30.8247242
  14.4025116 -17.3985767  31.4989300  14.9900827 -18.4920483  30.6564159
   8.1407709  -9.5345058 -42.8042526   9.0192518  -9.1649952 -43.1854057
   7.6667247  -8.6671133 -42.5969238  21.2348099 -11.1833773 -28.8167820
  21.8875427 -11.6418409 -29.3611698  21.7804356 -10.6954956 -28.1661186
  35.5846748  30.2220573 -18.2923737  35.1627235  30.9640102 -18.6593018
  36.5357819  30.4768372 -18.2936954  -6.3945632   9.6264544   0.7024574
  -6.5385013   8.6607008   0.8261829  -7.1833792  10.0130234   0.3421768
  -0.3402418 -22.2692394  -5.9055214  -0.5145601 -22.8904953  -5.1876378
   0.5412285 -21.9763336  -5.7880516 -18.2024307  26.3104610 -12.8721437
 -18.6818504  25.7811642 -12.1626120 -17.7151375  26.9831371 -12.3230019
   7.6739988  -6.8190846 -47.7520447   8.4700651  -7.3220072 -47.5880547
   8.0438251  -5.8906093 -47.9299202 -21.8468838  13.3899384  22.4911880
 -22.0951271  13.1911974  21.6043892 -22.4779625  14.0449495  22.7895107
 -11.2605715 -29.6025772  -9.9880552 -11.4004946 -28.8796215 -10.6433725
 -11.2709751 -29.1408806  -9.1464233 -40.9776154   2.7871311 -30.9394855
 -40.6611710   2.9475689 -31.8620911 -40.5029793   3.4764247 -30.4815674
  24.5078354 -25.0447407 -28.0702648  23.9925785 -25.8671703 -28.3040237
  24.9684334 -25.3687077 -27.3048058  -0.2012769  -0.8315925 -47.7105789
  -1.0603662  -1.2716922 -47.6071625  -0.4332221  -0.1088362 -48.3475761
   6.5484619   3.7654238  41.6802940   6.7794027   2.9180207  42.1186638
   5.6195378   3.5225391  41.4423141   5.2544799  31.6650429  16.2876511
   5.3912992  30.8188210  16.7715721   6.0468760  31.7078075  15.7160378
  30.3243980 -17.4043236   5.5623026  30.1597042 -17.5453663   4.6097531
  29.7440567 -18.0503750   5.9346967   0.8777211 -25.9680214 -24.1216354
   0.8714120 -25.9252186 -25.0619106   1.6578463 -26.4865952 -23.8865433
 -23.2479458  14.8234167   0.6393298 -23.3653946  14.6385412  -0.3929060
 -23.9502583  14.1999321   0.9089678  -2.1019528  34.5095634   8.2941513
  -2.4344296  34.0122604   9.1098013  -1.8539827  33.7839508   7.7158265
   8.0828657 -35.3531647  12.7919493   8.1596317 -34.5969429  12.2043066
   7.5419822 -35.0096931  13.5379286  -6.5489135 -18.6056042 -27.0447369
  -6.1809993 -19.1985168 -26.3698044  -5.9022903 -18.6723747 -27.7617245
  31.0572243   2.7250571  19.0650311  30.1628513   3.0112567  18.7859783
  31.0931854   1.8816785  18.5586853 -24.5238419  27.2083759  -6.5461564
 -25.3049088  26.6695213  -6.7701674 -24.2047386  26.7872543  -5.7010875
 -33.6048279  -1.8041499 -21.0445328 -32.6964531  -1.5752084 -20.8491077
 -33.7092972  -1.3233715 -21.8946781 -11.0755968  33.4427032 -37.9762497
 -10.9855270  32.5467110 -38.4110565 -11.7590628  33.2691803 -37.3414574
   9.0447607   5.2448936  44.6618919   9.3647099   6.1786976  44.5492554
   9.2807016   5.0996051  45.5972633 -33.2890472  14.1401691  18.3742847
 -33.3790665  13.9498301  17.3907356 -32.2807655  14.3221521  18.3273964
 -14.9897919  33.9924316  -3.9671817 -14.3625164  33.1516495  -4.0279531
 -15.6666803  33.6981697  -4.5779591 -33.1319885 -23.9309540 -18.0389767
 -33.1596375 -24.4020348 -17.1468315 -33.1345520 -23.0173950 -17.7436981
  -4.2794771  31.4377556   1.0074160  -3.8668427  32.3021812   1.0386902
  -4.7650375  31.4728737   1.8391769  -8.6550083 -28.7443104   2.1481879
  -7.7338958 -28.4767437   2.2956307  -9.0433178 -28.5398903   3.0030239
  36.8833618  21.5730934   6.0409904  37.8576088  21.8324833   5.9328132
  36.9152298  20.6517849   5.7934971 -24.1319389  -8.9757166  -5.1301332
 -23.8076515  -9.3043184  -4.2860608 -24.3290501  -8.0591679  -4.8474150
 -31.1566010  28.6899338   9.3947086 -31.1833954  29.4533501  10.0480080
 -30.1994171  28.7099628   9.1899710 -23.9248047   9.6168833  -2.1451840
 -23.7574348   8.9963255  -2.9143167 -24.4703846   9.0829535  -1.5606108
  37.1045876  -1.4623871 -18.5395851  37.9418945  -1.5673466 -18.0849133
  37.3193245  -1.9243433 -19.3915939  20.5126915  -6.1283698 -15.0674038
  19.6080246  -6.0839119 -15.5112219  21.0376682  -5.6355925 -15.6916170
   9.9632330  38.0303879   6.0008583  10.4282608  38.7919617   6.4303827
  10.1093969  37.3409920   6.6666389 -21.6120205  17.1216831 -37.6830559
 -21.0123100  17.8111248 -37.2538223 -21.3535347  16.4204102 -37.0164337
  40.7846107  -8.0405684  -1.2771448  40.9447556  -8.2987757  -0.2758423
  41.3414536  -7.1765447  -1.1503072 -18.7913971   3.5739563  16.7894745
 -18.1461029   4.0549822  16.2046127 -18.2486019   3.3970044  17.6002922
 -13.3483477 -12.5991430  34.4584618 -13.9123287 -13.3578987  34.1240654
 -12.4962950 -13.0749750  34.6059532   7.6069174  28.7208843  27.0436420
   7.9140244  29.5131378  26.5247574   7.0964370  28.2887440  26.3328857
 -35.9820633 -21.8181038  25.6136990 -36.8107605 -21.5034218  26.1366463
 -35.8157768 -22.6403027  26.1483631   9.1464663   8.2659073  -9.6337700
   8.9743795   7.7785025  -8.7771692  10.1356592   8.3826265  -9.6351938
  39.9266624 -19.8104115 -19.5553741  40.7518730 -19.2889576 -19.5717144
  39.3103256 -19.1597195 -19.1984844  15.2595387  -3.7286661  32.2304573
  16.1644249  -3.4068246  32.2505074  15.0793800  -3.6274033  31.2680206
  13.0534678 -12.6880102 -15.7428427  13.8469038 -12.3199387 -16.2270584
  12.7411261 -11.7878160 -15.4209270  -0.8082297  11.3786440  19.5057926
  -0.9166619  11.1486893  20.4416599   0.1737352  11.2604876  19.3803177
  21.8085537 -27.7262325   8.8885784  21.5734768 -28.6615791   8.6017189
  22.1215096 -27.3881302   8.0539274 -33.4361496 -13.6526232  22.7166042
 -32.4910355 -13.4565783  22.7678909 -33.8197594 -13.0714273  23.4136734
  -0.4501191  43.5407715  22.9076252   0.0853159  42.8126945  23.3988647
  -0.7922304  43.9476814  23.7787495 -11.3732252 -18.3092976   8.6741333
 -11.6307716 -17.5148163   9.1373968 -11.3003702 -18.9607849   9.4176760
   9.9619846  12.7759266  -1.6721411   9.2848625  12.6170635  -2.3530662
   9.4615164  12.6909027  -0.8374051  41.0767822  -7.2051811  11.6851740
  40.8522873  -6.5008755  12.2749510  42.0465546  -7.0173788  11.5571632
   6.2020640 -40.0541115  -2.6745505   6.4938593 -40.4039154  -1.8343736
   5.8342915 -40.8864326  -3.0215652  29.6326618 -28.4675102   6.0585799
  29.0368195 -28.7950783   5.3648195  30.4314919 -28.3429928   5.5698848
 -31.6154613 -17.4150295  27.4154243 -31.4658318 -18.3571568  27.6466122
 -30.7312069 -17.1429214  27.1486263 -39.1636963  -0.4375218  -6.1697245
 -39.5100555   0.3831327  -6.6097198 -39.8018417  -1.1332290  -6.4941335
  -9.8528242  -0.3165338 -40.5427856 -10.4069891  -0.7930115 -39.9410553
 -10.1605644  -0.6159202 -41.4398727  14.0402184 -29.6854935   4.5358977
  13.5117168 -30.2229786   5.1429119  13.5642738 -29.8957691   3.7455924
 -35.1414108   7.8150759 -18.5533981 -34.5067291   7.3545251 -17.9462032
 -35.9072342   7.2772980 -18.3514271 -11.7283602  38.6815491  -4.1552711
 -12.4361029  38.1898232  -3.6612573 -12.2524347  38.9880638  -4.9708519
  43.5226746  -4.3609262  20.9174995  43.4148636  -3.5519228  21.3830547
  44.3948784  -4.6173034  21.1757793  14.2494659  16.3541679  -8.8876467
  15.1272106  16.6576939  -9.2369757  14.4021931  15.4040489  -8.6857119
  -9.9042721 -39.6909065   1.9363118  -9.2832499 -39.7675018   1.1916738
 -10.2691622 -40.5634880   2.0326986  -3.5018046  10.3052711  -1.9146513
  -2.7299166  10.4156542  -1.4198130  -4.2429924  10.7475834  -1.4179838
  -0.6498811   7.1075177  29.6151638   0.0387409   6.5210609  29.2217388
  -0.1466971   7.3194103  30.4753590  23.5217094 -17.8108044  -4.3243279
  23.3548584 -18.0685234  -3.3555596  24.4313755 -18.1302319  -4.4241834
  40.2612038  15.7166166   0.3152303  41.1437912  15.7274389   0.8422493
  39.8015327  15.0487900   0.8335435 -30.1910114 -40.8180389   4.8703337
 -30.6604023 -41.5218811   5.3868489 -30.2762566 -40.0549431   5.4234481
 -26.6693707 -37.3301163 -21.2970028 -27.5595264 -37.6994438 -20.9860249
 -26.8951702 -36.5372429 -21.7764149   6.2026525  12.4704952  -2.5155067
   5.6250319  13.0333538  -3.0143354   5.6177931  12.0076227  -1.8590163
  26.8006916 -32.3583336  20.1301098  27.4029026 -32.9400406  20.5439587
  26.7155285 -32.7355461  19.2308826  35.7626724  -3.7527425  -4.1478128
  35.7794304  -2.8874619  -4.6410308  35.8793793  -4.4023790  -4.9215336
 -23.1508312 -32.9865646  11.3527794 -22.4415226 -33.2590485  11.9951506
 -22.6591358 -32.7193871  10.5810604  36.4044571   8.3170433   3.4525237
  35.4918289   8.3065901   2.9857960  36.9368668   8.3072033   2.6195889
  30.0370274  21.5461788  -6.2335024  29.3436031  22.2579842  -6.2448339
  29.6560669  20.8824406  -6.9176092 -19.4488792  -7.9201918   6.0028048
 -18.6905804  -7.3370628   5.6750908 -20.1783180  -7.2077703   5.9587851
 -40.9360771  28.8086529   4.4825106 -40.1244545  29.0985966   4.8816552
 -41.2313423  28.1499367   5.1860008   9.4154234 -27.6387253  39.0688019
   8.5025616 -27.9619370  39.2491455   9.1634684 -26.7391205  38.6420517
  17.5556870  43.7521858   4.3984056  18.1086464  44.0904961   5.1608429
  17.4830170  42.8262787   4.7930593 -25.2484283  36.8639565   4.3827581
 -24.4686871  37.0070763   5.0189261 -25.2429085  37.6758194   3.9466009
  42.8620491  24.4271221  11.6936798  43.6233749  24.9928493  12.0975466
  42.7901649  23.7901649  12.5179214  20.6775913  40.5180855 -10.8572435
  20.1478081  41.0697899 -10.3232651  20.5037956  39.6835594 -10.5200510
 -31.8352203  14.2065201  -0.8076965 -32.0674400  13.5232782  -0.1106733
 -32.0700684  15.0155220  -0.2501740 -11.5383015 -34.5517845 -28.5139389
 -12.4273529 -34.5729027 -28.8636513 -11.0502329 -34.5558434 -29.3615685
 -27.2078686  36.4912109 -11.5856676 -26.8400154  37.0873451 -10.9170809
 -26.9801521  36.9418907 -12.4133787 -11.6535683 -26.5523281 -18.6245632
 -11.9624472 -26.7688560 -19.5413094 -12.3963146 -26.8196812 -18.0846138
  -4.2661076 -17.5440483 -41.0794144  -4.2186670 -16.8013649 -40.4116249
  -3.3040471 -17.5729904 -41.3262901 -13.9932098   0.9220369 -29.4345512
 -13.7572746   0.0677857 -29.1010628 -14.6049662   1.2354064 -28.7579212
  33.7287903  19.1680317 -12.7165766  33.4951401  20.1648579 -12.6669588
  34.4000816  19.2191086 -13.3973417   3.6581950 -40.8707809   4.9504371
   3.3875220 -39.9620247   4.8158331   4.6038218 -40.7768936   5.2457938
 -32.3338127  24.2721233  24.8186150 -31.4758930  23.8231506  25.0655346
 -31.9782200  25.2115307  24.8171558  -6.2931094 -23.9154854 -31.4395809
  -6.2987723 -24.4150238 -32.2727928  -5.4031372 -23.4635696 -31.6153679
 -37.3401299  25.0173759  23.3123989 -37.6246872  25.2038193  22.3771648
 -36.3691864  25.0865707  23.2159958  36.0514755 -15.3067150  26.0502720
  35.8632126 -16.2087612  25.6306877  36.7622948 -15.0069599  25.4149590
  -7.8109150  42.9490166 -12.7790499  -7.3829613  42.2166824 -13.3455563
  -8.6412458  43.0798607 -13.3928690  -2.7214081   5.6255369  26.1087265
  -1.9270346   5.0378838  25.9967117  -2.4069836   6.2411385  26.7700176
 -24.4480305  14.0584745  -9.3194504 -23.5728111  13.6134872  -9.5019903
 -24.2961807  14.9882336  -9.5940313 -14.1853905  -6.6896229  39.0881081
 -14.0480595  -6.7607450  38.1493454 -15.0473738  -7.1026058  39.1920700
  -2.9573510 -30.6499214 -34.8561935  -3.2846246 -30.7459965 -35.8397713
  -1.9908729 -30.5058346 -35.1042328   9.7756042 -23.6947308  32.8695526
   9.7822180 -23.3364735  31.9821568   9.8600187 -24.6531868  32.6401901
 -24.7397881   8.2313795   1.3526670 -25.2919083   7.4474039   1.4053720
 -23.8610573   7.8381267   1.0787308 -18.9681301  -3.4999955  34.7050514
 -17.9749508  -3.3675721  34.6476402 -19.2536469  -2.5766742  34.4287758
  -6.3084440   7.5209446 -27.2816429  -5.8213863   7.7499146 -26.4958210
  -7.2050734   7.9119525 -27.0620804   2.2551658  29.9882317  34.9293137
   1.7358359  30.6892319  35.4091606   1.6300174  29.2749348  35.1233139
 -11.2463160  17.3095360 -23.8610268 -11.8498583  17.1796494 -23.1050377
 -10.5131521  16.7689915 -23.5370598  29.8567657  21.7894516  13.7144861
  30.1285458  22.6596527  14.0175686  29.1913147  22.0801105  13.0652895
  32.5653496 -20.8807297 -24.7115402  32.7718506 -20.8784447 -23.7534637
  32.2224693 -19.9533424 -24.7646370  27.6250134 -23.3812981  25.7103786
  27.3411350 -23.5782356  24.8052139  27.8680210 -24.2707520  26.0239315
 -40.5960426  -1.0352803 -28.9312172 -39.9480667  -0.3882042 -29.1989231
 -40.2855301  -1.7422559 -29.6226845  19.5165043  -6.1842012   2.7386632
  19.0554600  -6.9180479   3.2069635  19.1796894  -6.2481012   1.8038522
  34.8300362  23.5809021 -25.5161972  33.9187698  23.9384937 -25.4238110
  34.9679947  23.1298389 -24.6297188  19.1102428   2.2730989  11.5672789
  19.0910091   1.4928865  10.9655771  19.9686012   2.1618271  12.0175867
  10.6720333  -4.5893817  15.2115917  10.1318674  -4.1174541  15.9054852
  10.0284319  -5.1696806  14.8941097  39.5839157   7.8481441  12.7569847
  40.5351295   8.0926924  12.4238987  39.8710022   7.6808953  13.7189999
  12.6791172 -15.0771370  18.2085266  12.9972391 -15.5999460  18.9688740
  11.7546949 -15.4323826  18.1338120 -36.3112488   8.2761879   0.7810480
 -36.6747551   8.4354782   1.6322857 -35.6319580   7.5665083   0.9144181
  38.1270676  16.2922878  16.3352337  37.2239838  16.5195694  16.3682861
  38.3684502  16.4205532  15.4225302   8.5067902  27.7272873   9.7634859
   9.2757883  28.3388252   9.6836767   8.9852095  26.8151932   9.7838583
  34.4119492 -16.9214878  -7.2731733  33.4384232 -16.9906425  -7.2552452
  34.5165596 -16.0178146  -7.0227165 -19.0073357  -8.5169106 -40.7926102
 -19.3480682  -8.6881485 -41.6700668 -19.6032524  -7.7850800 -40.4499512
 -15.3835812 -16.2960777  20.3102875 -15.1462517 -15.6544504  19.6539383
 -14.6166735 -16.7575722  20.5349693  21.0557995  47.4144096   2.8160727
  21.0147667  47.9937439   2.0470202  20.4540653  46.6902695   2.6544449
  43.8224144  -4.3201656 -31.6962910  43.1521301  -4.4764547 -31.0013237
  43.5360374  -4.8272963 -32.4626007 -13.1222000 -15.2333555  36.1407356
 -13.0465803 -15.8478918  35.3886909 -14.0974236 -15.4775944  36.3314972
   6.0177875   4.5240116  -5.0233297   5.5445266   3.6682396  -5.0245318
   6.2812524   4.5514112  -5.9118586 -14.3929510   7.9642124 -31.3707390
 -14.9176855   7.7816262 -30.6175804 -14.8001442   8.6905842 -31.8015556
  33.4650421   0.8863952 -15.1275482  32.9175034   0.9106937 -15.9759331
  34.0408936   1.6424837 -15.3381605   2.9261956 -17.8448334 -41.5203667
   2.5837982 -17.0732555 -41.0382118   2.6916003 -17.5814457 -42.4315491
  26.6408691 -13.2906952   3.2160904  25.9033451 -12.7854385   3.5376854
  26.7024059 -14.0485973   3.8773987 -16.4855442  -2.4427249  34.4432869
 -16.5911522  -1.4643450  34.3849220 -15.7064438  -2.4703107  35.0651054
 -12.8799734 -48.2448769   2.2071302 -12.2265701 -48.8457680   1.7931677
 -12.6003904 -47.4157410   1.7853292  41.1851540  16.0242004 -18.9907360
  40.3184738  15.5744762 -18.8093605  41.3097420  15.8150578 -19.9338017
 -28.2076931   9.8257627 -22.2029324 -28.0669193  10.3774204 -21.3681355
 -28.9410782   9.2880039 -21.9887238 -17.2962322 -15.2630529  28.0694256
 -17.1477833 -15.5150890  29.0005302 -17.7310429 -16.1114044  27.7406788
  26.5595379 -35.3912697   5.5789642  25.8881302 -35.3272705   6.2711439
  25.9817886 -35.2522278   4.8219619   0.5156419 -42.6555824 -28.2518425
  -0.3171898 -42.1554222 -28.4587097   0.7464811 -42.9719810 -29.1212082
  22.4164200  36.5704994 -14.4800711  23.0370712  35.8434830 -14.5489693
  21.5893555  36.1297951 -14.5953188  26.9100761 -24.5162888 -10.6319466
  27.3566895 -23.6203041 -10.4187775  26.0211449 -24.2426453 -10.8919163
 -30.4606762   8.5543165 -40.8061256 -30.8892860   9.3127947 -40.3179779
 -30.6653595   7.8812537 -40.1672401 -31.6899433   1.7181243  17.3654747
 -31.9196587   2.1525335  18.2238235 -32.3741417   0.9967060  17.3859425
  19.6252289 -20.5320148 -21.1407604  20.6362629 -20.4204884 -21.1150284
  19.4245319 -20.2470970 -20.2311630 -14.0034046 -11.8475475  -1.1683582
 -13.1810474 -11.3634014  -0.9283876 -14.6445246 -11.5259981  -0.5351464
  37.9813690 -15.4836035  -0.6520095  37.7991867 -15.6331577  -1.5878919
  37.1310310 -15.0346308  -0.3670239 -26.6938858   8.4936600 -29.2674522
 -26.3401394   8.3288622 -30.1622715 -27.3126335   7.7192059 -29.2439041
 -17.3484516 -37.5276413 -24.7184219 -16.9402618 -37.8610992 -23.9254627
 -16.8128700 -36.7381668 -24.8982811 -21.5655441  33.2380791   9.5353193
 -21.3995724  32.5894928   8.8008585 -21.3171177  32.6725769  10.3147192
 -19.8471546  -1.9197874 -38.5797768 -20.8055267  -1.8520685 -38.5967484
 -19.5228100  -1.1135242 -38.1878090 -21.7822742  15.1243839  15.8156986
 -22.3156109  15.2519245  16.5889206 -20.8871002  15.2834311  16.1136360
  22.9458179   1.5533301  -2.8828197  23.2695789   1.1618346  -2.1152689
  23.6044941   1.2249635  -3.5594954   8.7357616  18.0335045  26.5064583
   8.3954992  18.5948334  25.7634239   9.5887003  17.8260517  26.2286034
  18.7783871  23.6595325 -27.4903984  19.1392326  24.5130119 -27.7848778
  19.0415993  23.6327801 -26.5773849 -11.3368177 -16.0380497  22.6252613
 -10.9055109 -15.6887798  23.4499817 -12.0964050 -16.4754162  23.0493298
 -23.4101162  37.9227142 -14.3046951 -23.7411346  38.6639595 -13.7022467
 -24.2102871  37.4853706 -14.5258160 -39.6983757   4.8688846 -30.2836533
 -39.8736687   5.7669034 -30.6206760 -39.5547791   5.0078363 -29.3605766
  -4.5020585 -15.8710384 -36.8542290  -3.8399549 -15.6027021 -37.5462036
  -4.4486685 -15.0787888 -36.2801514  33.9001617  23.8526001  26.5446453
  33.9488640  23.6107883  25.6040535  33.4924583  23.0531464  26.9063721
   7.0920463   7.5858588  40.2677727   7.2758317   7.4222965  41.2235680
   7.2353239   8.5468283  40.2281723 -35.6484108   9.3446054  23.3204422
 -35.6989975   8.7810335  22.5135307 -35.1898880   8.7438297  23.9412117
  -6.1387868 -22.5521564 -13.9430294  -6.2413921 -21.6131039 -13.7196779
  -5.6602082 -22.8523636 -13.0960722  15.2818470  42.5236320   7.1114779
  15.7561941  42.1557045   7.8869233  15.8046923  42.0990448   6.3553824
 -12.8614407  21.0977993  45.1938782 -12.2001171  20.4607506  44.7733421
 -13.2041407  20.5220814  45.8994255  29.7460690 -30.7834187  -3.6492922
  30.2513542 -30.7979126  -4.5053086  29.1099930 -30.0757942  -3.9063489
 -23.7850513  34.7894554 -11.6465473 -24.0413303  35.6484909 -11.2195377
 -24.7110043  34.4295616 -11.8411207 -10.1213236 -18.6008167  14.0716000
 -10.0452738 -17.8621311  13.4413166 -10.7830782 -19.1999035  13.6524181
 -26.3694897  -6.3309097 -17.3667660 -26.7128410  -7.2295189 -17.3334999
 -27.0368767  -5.9285588 -17.9337406  19.5606155 -15.8571863  -8.9224710
  20.1723843 -15.6762094  -8.1373053  18.8419628 -15.3025742  -8.7122211
 -17.0432587  -9.2603350  35.6444244 -16.2718754  -8.7440214  35.3323402
 -16.9851665 -10.1026506  35.1072960   4.5698724  30.2617836 -27.1622639
   4.9658685  29.3708057 -27.4140282   3.6807311  30.1701736 -27.5276890
 -19.5385799  -5.8209548  21.4551353 -19.4926891  -5.2734885  20.7049809
 -18.8644333  -5.4930582  22.0519962  -1.6918405 -19.6602783  -4.1308084
  -1.8992647 -20.5559845  -4.4365158  -0.8851488 -19.7797699  -3.6479144
 -11.6578074 -16.7150383  16.6663551 -12.1962690 -17.2311134  17.2798920
 -12.0143261 -17.0260220  15.7996178  29.6073627  24.5248756  13.5422277
  28.6402016  24.5784779  13.6742325  29.6783657  24.6401081  12.5775661
 -42.4347420  24.9690132  -8.2270727 -42.5033302  25.0912571  -7.2412310
 -42.5930977  24.0122719  -8.3247223 -29.3965855  36.2871857 -23.6711407
 -29.6777878  36.9932976 -24.3021870 -30.0052586  35.5709190 -23.9263840
   4.6257710  14.6399803 -25.5580730   4.5263882  14.8558197 -24.6039143
   5.0945582  15.3467226 -25.9011269  14.0920925 -20.5846081  33.4451408
  13.3023262 -21.1925392  33.4321747  14.5155964 -20.9179955  34.2156105
  29.8011494  20.6304646 -22.4817238  30.0104809  21.4142952 -23.0192070
  28.9891987  20.9824371 -22.0654716  20.2496929   1.1887354  -6.1231880
  20.9627342   1.4248666  -6.7713480  20.6825638   0.4237179  -5.6462827
  28.5044212 -12.5710125   5.7355328  28.4516602 -12.8912773   6.6856008
  28.2372055 -13.3852797   5.2604399 -12.4539757  13.7168884 -36.9305534
 -11.9882689  14.4587574 -37.2654953 -11.9133148  12.9408007 -36.9028931
  27.3365135 -25.4455338  -1.6289971  27.4514923 -25.7694569  -2.5097048
  27.8567448 -24.6165810  -1.6015552 -28.6692028   7.9301486  30.0110092
 -27.7926178   8.2025414  30.3201065 -28.4426136   7.6832728  29.1159420
  24.1779499   2.2237813  31.6093388  23.3086662   1.9043941  31.2589817
  23.9153233   2.4071500  32.5297203 -19.8533020  19.5726891   8.4309149
 -20.7073326  19.4318752   7.9731140 -19.5211983  18.6413040   8.3955221
 -26.8904572   0.5382017 -36.4513321 -27.3628101   1.3660551 -36.6987953
 -26.5431385   0.7161684 -35.6340675   7.3395758   1.6392812 -10.1934805
   7.2567382   1.5119027  -9.2405701   6.4131918   1.7331260 -10.4418411
   7.4941115  17.7124596  20.2758121   7.6879959  18.1337414  19.4639606
   8.1576576  16.9858036  20.3592281 -32.7605171 -17.0400696  18.8548546
 -32.6995430 -16.3764305  19.5619144 -32.2730293 -16.5854034  18.1235104
 -11.4509020  14.2617617  47.7951469 -10.4831505  13.9969883  47.7575188
 -11.8964214  13.4383907  47.8285103 -24.7357521 -16.9208031  18.2083397
 -24.3854065 -17.2290707  19.0413074 -23.9106979 -16.6556759  17.8177166
  17.6313038   3.8684723   3.5339925  17.1882782   4.2485399   2.7131081
  17.0869274   4.3991294   4.1953053  19.6215057  -8.5949316  23.3715878
  18.8587132  -8.0817928  23.7577744  19.6868629  -8.2838259  22.4845734
 -19.5204964   9.6658955  14.2293530 -19.8022156  10.6265316  14.2497005
 -19.8786812   9.3891430  13.3330879  30.0306454 -34.9086266  -5.9825048
  30.7380352 -34.2630424  -5.6308675  29.9403248 -35.5026245  -5.2222710
  21.7501965   8.1980486 -16.7040997  20.8921375   8.3672209 -16.2848415
  21.4834061   7.8027086 -17.5548153 -11.9523935   6.1227522 -36.7272186
 -11.6103010   5.4959702 -36.0476227 -12.8141479   5.7535486 -36.8727417
 -15.5912342   3.7078032 -18.8513947 -15.2640982   3.0574293 -19.5804443
 -15.6217089   3.1150625 -18.0668583 -34.6632576  21.7732830 -25.9472218
 -34.7132072  21.3887196 -26.8299961 -34.1277924  21.1070232 -25.4918175
  22.9093266 -22.8572655 -26.7034111  23.8818474 -23.0474453 -26.4903374
  22.8877354 -23.1890755 -27.6030998 -30.5373802 -38.6756592  -6.8904271
 -29.6771946 -38.8685989  -6.5682850 -30.3659935 -37.8932800  -7.5076890
   9.7734976  -9.2314711  34.5996284   9.7217627  -9.2252731  33.6254349
  10.3415728  -8.4294701  34.6230240  32.8215370  -7.4595575 -19.3808422
  32.2984734  -6.8560867 -19.9762688  33.5720749  -7.6002855 -20.0561409
  -3.5624580  26.0846653   0.9914032  -4.3981652  26.0991554   1.4718695
  -3.3728602  27.0493336   0.9094954   1.9109843 -10.6553030  48.4117889
   2.4627926 -11.4193325  48.7097778   2.5695088 -10.3187284  47.7727051
   1.9325391   2.8689167 -48.3004227   2.3347001   2.7816465 -49.1696434
   2.6863680   2.9012725 -47.7046623 -16.2267227 -29.0270100   2.2747681
 -15.9114590 -28.1302681   1.9684172 -16.1917496 -29.5163364   1.4305177
 -38.4416008   6.8086553 -20.2135239 -38.3509789   6.5626087 -21.1270351
 -37.7301826   6.2802753 -19.7711449 -16.1837578 -21.3320103  25.6007900
 -16.8832531 -20.6757374  25.9249477 -16.3148212 -21.9965858  26.3503475
  34.1560593 -30.8121624  15.1226664  34.8524933 -30.2327290  14.8470612
  33.9649849 -30.4489689  16.0617180   6.0577950  36.8936768 -17.0320148
   5.6211762  36.5029030 -17.8227940   6.3939848  36.0553284 -16.6283207
  36.0823021 -24.9910622  17.5011921  35.4809532 -25.6914806  17.7379265
  36.1753006 -25.0909882  16.5633965  18.8363438   4.4204307  -2.3862979
  19.5276356   4.9078126  -2.8749011  19.2709064   3.5281186  -2.3994551
  14.9490232   7.3825302  23.8134842  13.9937010   7.6129966  23.7685986
  15.1322880   7.3726354  22.8513374  44.6142845  -1.9067626  -0.5547842
  44.6438293  -2.3067577   0.3308768  43.8197823  -2.4141767  -0.9143841
 -21.5905838  20.7643909  33.9432869 -21.9689217  20.3253918  33.1535530
 -20.6893959  21.0193233  33.5888100  43.2261429  -1.7092346  -9.6323843
  42.7449379  -1.4671780  -8.8303499  43.4476089  -2.6498783  -9.4039268
 -14.8060331  15.7878122 -26.8487682 -14.4610291  16.6264133 -27.1966820
 -13.9766512  15.4804468 -26.3819847 -16.0226097 -31.2440109 -21.8479195
 -16.4733944 -31.7737255 -21.2381611 -16.2904072 -30.3351173 -21.5913334
 -11.7771015 -15.5879116 -25.5435104 -11.9373131 -15.1930456 -24.6738873
 -12.3166542 -15.0276451 -26.1279087  13.4598932 -34.1620178  -9.6668625
  13.5299358 -34.9208565 -10.2529507  12.8974829 -33.5191841 -10.0787201
   1.9786907 -21.9613724 -27.5980434   1.1193252 -22.3184071 -27.4504509
   2.4722915 -22.1197243 -26.7615948  12.1315022 -15.8328466  42.3885307
  11.3243265 -16.4088497  42.5199928  11.9207335 -15.0794334  42.9208145
 -39.1039238   3.6969795  23.8937874 -39.0534248   3.8881497  22.9331570
 -39.5597763   4.5356302  24.1493187 -37.0276489  -2.0429187 -18.6202278
 -37.0822334  -1.9672018 -17.6454277 -36.2109146  -1.5449315 -18.8187389
   9.2856035 -20.1206722   3.6988611   8.9851971 -20.7549496   4.4132442
   8.6346321 -19.4180737   3.8887136  -4.6722398  35.5679703 -35.5114059
  -4.3670120  34.7131042 -35.1212692  -3.8922150  36.0746880 -35.7356682
 -22.8541107  33.1994781  -3.3940699 -22.2717609  33.9505730  -3.1728251
 -22.3288250  32.7515793  -4.0348492  16.3454132 -22.7122154  35.1301765
  16.9652958 -23.1330490  35.7991829  15.6315947 -23.3987808  35.1170387
 -32.0959816  16.5833416 -29.2901726 -31.5070896  16.4391861 -28.4512024
 -32.9233017  16.2082939 -28.9079704 -22.8743954 -27.1999836 -11.7147760
 -22.9531937 -28.0991650 -11.3862038 -23.4160957 -26.7518559 -10.9702129
 -10.5420046  -3.1087642 -15.4769306 -11.3237734  -3.6260033 -15.8345270
 -11.0749846  -2.4625957 -14.9444780  -7.5896335  42.8331375   1.3346137
  -7.5588813  42.5924797   0.3914826  -7.7621431  41.9705048   1.7947272
  12.2560673   9.4660597   2.5211599  12.4704599   8.7421198   1.8262753
  12.0934458   8.8860302   3.2796030  24.0143986  32.1125946  25.8127766
  24.1016273  32.0173378  26.7815189  23.4347191  31.3499374  25.5937557
  27.7816563  18.6629047 -30.2975769  27.6788063  18.2033691 -31.1510754
  28.4870911  18.1475296 -29.8958569 -19.6658630  18.4950657 -23.0107307
 -20.4515095  17.9961319 -23.2149010 -19.9790630  19.3901005 -23.1557598
  22.1598835 -30.0035706  22.8744564  22.3298798 -30.8346786  22.3585339
  21.1598835 -30.0231190  22.7764206 -26.3246136 -21.5690594 -20.6105328
 -26.3035641 -21.6971416 -19.6535397 -25.5995216 -21.0064602 -20.7368355
 -40.4933624  23.4368668 -10.5336170 -39.7374916  23.7482586  -9.9607267
 -40.7968750  24.3039989 -10.8633919  -2.8630798   2.9454782 -13.5367785
  -3.7743104   3.2825160 -13.2835274  -3.0131910   1.9920241 -13.5567265
 -25.8180466   6.9675298 -19.1721458 -25.1214905   6.3261962 -19.0626469
 -26.0186996   6.8828354 -20.1103401  30.2205029   0.4636162  37.8333549
  30.1634636  -0.4435092  37.4344254  31.1555157   0.7014958  37.7329597
  35.8995438  -4.7542672  27.2778912  35.0842018  -4.3289247  27.1058350
  35.8962708  -4.7864962  28.2319393  -5.7412019 -45.0685692  -7.6871314
  -5.5767064 -44.3868141  -6.9962091  -4.8068824 -45.4913979  -7.6225314
 -39.7906075 -25.3616486  16.7932873 -40.3468285 -24.5703049  16.7262440
 -39.7896461 -25.6051788  15.8361626  -1.4564887  10.8545008  13.1649485
  -0.8102165  11.5691700  13.0738115  -1.3257061  10.6240082  14.1330366
 -34.3870621   3.6008959  35.1074524 -33.6111259   3.8295534  34.5700760
 -34.3226776   2.6357980  35.1575546  -8.1820297  26.2001476  -7.4491458
  -8.9493599  26.1816425  -8.0554304  -7.4772682  26.6728954  -7.9842520
  -1.4596448   6.3945060  40.6201935  -0.7011564   7.0719686  40.6961861
  -1.5052853   6.2088547  41.6223106  21.6546974   2.7375243 -13.6109495
  21.8653793   2.3865788 -14.4990129  20.7325706   3.0558326 -13.8200865
  -4.4595151 -15.2962008  39.6110878  -5.4468632 -15.2203417  39.5334091
  -4.3888364 -16.2314034  39.2501411  10.6819048  11.9760132 -27.5013962
  10.5560589  11.0014992 -27.5539074  10.8946199  12.1452217 -28.4597301
  -2.6222484 -18.4656162  39.9817047  -1.9710332 -18.5770168  39.2576103
  -3.3818872 -18.1699562  39.4346085  12.1085978 -19.8264847   3.4999974
  11.1354475 -19.9285870   3.5663533  12.4030247 -20.6967182   3.6556804
  24.5029316  -1.8949212 -30.1029034  23.6814880  -1.4854993 -29.6878433
  24.1730366  -1.9529058 -31.0535202 -21.0066490  38.9146538  17.6117191
 -21.7802830  39.2076073  17.1335850 -21.1566124  39.3284607  18.5131855
  44.4171562  -1.5564264  11.1108875  44.5540886  -2.1305516  11.8689823
  43.4255257  -1.6683089  10.9393225 -15.8268404  -0.6047980  20.2724304
 -15.3277187  -1.4219085  20.0686855 -15.1330290  -0.1467247  20.8518124
  18.0980206  32.4105759  14.2956638  17.4428749  33.1274033  14.5177526
  18.7949734  32.9388580  13.9180841  11.2955065  16.3936901 -16.1115894
  11.1815262  15.8042364 -16.8676682  12.1709623  16.0298920 -15.7621603
 -21.5072517  13.6788797 -22.7441540 -22.0767517  12.8974628 -22.6468029
 -20.7524643  13.3286629 -23.1614590   8.3508883  15.9811592 -28.0152931
   8.0045843  15.1368732 -27.7989693   7.8068156  16.5394249 -27.3867035
  11.7184238 -39.3658638  -6.6692934  12.4719028 -39.9128990  -6.9887400
  12.0308018 -38.4973755  -6.6783566 -11.2391033 -20.0525093  36.7268562
 -10.8311644 -19.6890507  35.9184685 -10.8863153 -20.9410610  36.7461586
 -20.3012486   3.6059175  13.0916004 -19.9673882   2.6769941  13.1020765
 -21.0142384   3.5251949  13.7357054 -42.1798172  13.8060732   8.8550806
 -41.7701149  14.6245127   9.1623106 -42.8350792  13.6854134   9.5610762
 -11.9370909 -21.0602913  20.0357189 -12.6790333 -21.6081371  20.2449112
 -11.8904486 -21.1160984  19.0833664  25.3065014  21.3692551  -0.5298642
  25.2844105  21.7927837   0.3412180  24.3772430  21.1651878  -0.6864073
  39.2595863 -19.5674992  -2.6500599  38.9899673 -19.0460911  -1.8698348
  40.2191391 -19.4904022  -2.6504807  24.3619633 -30.2010708  24.7620049
  24.2093811 -31.1245880  24.4865055  24.7225075 -29.8054676  23.9315300
  10.5155439  -8.2058516 -19.2723694  10.7953749  -8.1605425 -20.2351532
  10.0444746  -9.0689526 -19.2474556 -11.6169243   5.6204863 -29.0555820
 -12.1374474   4.9999313 -29.6822433 -11.4739351   4.9326215 -28.3334026
 -17.0912914  -6.5822487 -42.3700294 -17.6607780  -6.8020749 -41.6388054
 -17.4993000  -7.0944171 -43.1404648  -3.5519593  -4.5776920 -40.1926537
  -2.7656457  -4.0759444 -40.4713936  -4.0717568  -4.5696940 -41.0440369
  10.2019196  38.3135147   3.4219086  10.3776960  39.2753983   3.3641586
  10.0798225  38.2720108   4.3996563  -0.7483288  35.6801682  -8.5613823
  -1.1079185  36.2705612  -7.8558803  -1.4155023  34.9311104  -8.4032812
 -31.0952034 -35.6970940   9.1602964 -31.1143913 -36.5736198   9.5907507
 -32.0789680 -35.4677353   9.2822285 -44.2323990 -11.2941132  -6.5246034
 -44.2537079 -12.2403030  -6.5268707 -43.6122093 -11.0661802  -7.2700486
  33.1539650   1.0709684   0.8841898  32.8032684   0.1387834   0.9348494
  33.9730453   0.9047745   0.3363402   1.2707897  32.4154778 -19.4031982
   1.0344827  31.6645870 -18.7739983   1.7295514  31.9313545 -20.1336079
  -4.5183644  -0.7718463   8.4414215  -3.6020136  -0.4099012   8.2548704
  -4.2458968  -1.6253884   8.8875399 -38.0183449  18.8042717  26.8523216
 -37.3552704  19.2627296  27.4262714 -37.8028297  17.8683701  27.0337658
   0.0159404  -2.4136143  14.7419548   0.3078751  -1.5172429  14.7801533
   0.8329337  -2.8595560  15.0466623  27.6625233  -3.6664727 -45.0742188
  27.0385551  -3.3718274 -45.7599831  27.0556488  -4.2841339 -44.6071091
 -35.9999695  13.3382130   9.9038792 -35.5136757  13.7016096  10.6207657
 -35.3748016  13.1183224   9.1987381 -24.3346310 -15.7389717  29.7079906
 -23.6904774 -16.4805241  29.5823441 -24.7857361 -15.6962585  28.8640804
   5.5850310 -41.2173920 -16.6355515   5.2227511 -40.3217850 -16.8106728
   5.1494832 -41.7665291 -17.3039932  34.8984032  12.5127125 -14.3527308
  35.2262573  13.3686638 -14.0331535  35.4565239  11.9421349 -13.7271528
  23.3110809  37.4858818  21.6915398  23.8466110  37.6317101  20.8890495
  22.4555435  37.3839874  21.2747078 -34.6089249 -11.3304024  20.8071976
 -34.6205292 -10.6938992  20.0781269 -33.6256218 -11.4063196  20.9181538
   4.1232390   0.0311150  -1.8075844   4.4688892   0.9237815  -1.9883512
   3.1560178   0.2241063  -1.9336259 -26.2699490  -1.5985461  37.3857956
 -25.4241867  -1.5730929  37.8067093 -26.8894882  -1.4010218  38.1562614
  25.2561359  31.6914406 -24.3575535  24.7334557  31.6878529 -23.5015583
  25.9056606  31.0047264 -24.1719208  31.4535332   1.1788439 -32.6690712
  31.6448517   0.2220742 -32.6043739  31.3482761   1.2622665 -33.6520653
  12.6835585   1.4041333 -32.3155289  13.4666319   1.2454458 -32.8404388
  12.7926407   2.3869889 -32.1399498  28.7055836  26.1792145   8.1602583
  28.7568722  27.0746708   7.7634516  29.5670242  25.8119183   7.7609258
 -20.9745274   7.4638238  23.8043480 -20.8510895   8.0332012  23.0386181
 -20.2170925   7.7379155  24.3750515 -42.9028397   8.1367989 -10.5947895
 -43.2731743   8.6881266 -11.3382378 -43.4483147   8.4890194  -9.8959904
 -11.8898907 -49.8390999  12.5939693 -11.7164907 -49.4913559  13.5297642
 -11.2598515 -49.2201080  12.1399870  31.5315800  17.4303360  15.5718412
  31.5930119  18.3523445  15.3096075  31.0024509  17.0538826  14.7866402
  26.8108921   1.5470226  18.3758278  26.7859325   0.6460618  18.8643398
  25.9448586   1.4638240  18.0443573  44.5698242  11.5786343  13.7919426
  43.8773575  11.7079172  13.1523066  43.9929886  11.6705341  14.6519909
 -23.0212421  24.5021877  17.7029705 -22.6390476  23.8514233  17.0250645
 -22.6440296  24.0310669  18.5242405   4.1099019  38.6129341 -16.3888969
   3.8042400  38.3975906 -15.5029097   4.7707667  37.8958549 -16.6076069
 -24.3559875 -32.8614845  -7.3509331 -23.8181629 -33.5670891  -6.8883891
 -25.1225815 -33.4748154  -7.6219015  15.7795391 -23.9263000 -11.6518450
  15.6323586 -24.6247864 -10.9701815  16.2801037 -24.4991627 -12.2971888
 -25.9327641  -4.1097212 -15.8192844 -25.9894772  -4.7975740 -16.5123711
 -26.8114662  -4.2127047 -15.4280567 -26.9754543  29.8219643  30.1031551
 -26.4458027  30.4221096  29.5634632 -27.3095646  29.1632805  29.4457359
  -6.2454648   5.5234871  21.0092030  -5.6370811   5.8274126  20.3264198
  -6.6710768   4.7429690  20.5491543  27.5686779  32.7096977 -23.6319351
  26.7526588  32.6209755 -24.1949577  27.9104176  33.5772209 -23.9708710
  -4.2096715  31.8675671  12.4838028  -4.0127611  32.3054504  13.2887735
  -4.5675921  31.0060005  12.8280449   0.8465027   8.7938585 -28.5099831
   1.4656295   9.2773762 -29.0721664   0.7205092   8.0260153 -29.1235313
  13.8929672  15.9217815  12.3817005  14.3879881  16.3175926  13.1863260
  14.4863653  16.3187294  11.7010460 -14.9516973  36.1519012  27.4123611
 -14.2759418  36.5330620  27.9888039 -14.8407173  36.6621666  26.5887985
  19.3634415   2.1240504  38.8800926  20.0037212   1.6102672  39.3654900
  19.1794186   2.8013401  39.6285629 -33.0330925   3.3029158  37.5613747
 -33.6360283   3.8651783  36.9716682 -33.6791801   2.5672121  37.7710037
  -5.1284356  36.5539093  -1.7578195  -4.9847460  37.4885826  -2.0359776
  -5.1741481  36.6428413  -0.7741838   9.8084068  25.7517338 -12.4519835
  10.2693529  25.2699661 -11.6611080   8.9365873  25.8881283 -12.0488062
  -7.0951357  -8.6933880   2.1942072  -7.3519740  -9.1916018   1.4027202
  -8.0184736  -8.2858706   2.3704963  17.0859241  27.0004234  -8.3325033
  16.5741577  27.6792946  -7.8908691  16.3570728  26.5895233  -8.8748655
 -24.9798317   8.7955675  43.1829834 -25.1165771   9.6196480  42.6791725
 -24.4866734   9.1628113  43.9336166 -37.8100891 -17.4661884  22.0657921
 -38.1932030 -18.4059353  22.2584133 -36.8618431 -17.7115269  21.9588051
   7.4949102  31.6843529 -27.9309750   7.8181167  31.8991013 -28.7999859
   7.8267918  32.4264565 -27.4041061 -12.2543058  -0.5038522 -22.7388363
 -13.2287407  -0.5122563 -22.8926811 -11.8892365  -0.6795697 -23.6432323
 -23.7870312  -4.7132244  23.8972626 -23.9188290  -4.0506392  23.2352657
 -22.9754715  -5.1536775  23.5918274  18.0662804  -3.8491511  17.6713715
  18.2626457  -3.4629602  16.7619781  18.9784908  -3.8654611  18.0057602
  -6.5076499  43.4000168   6.9219685  -7.1014819  43.0832329   6.2117581
  -7.1224995  44.0175133   7.3192916   2.5627327   6.8696780 -36.5459747
   3.1137261   6.8998580 -37.3403473   1.9263905   7.5668287 -36.6938477
   5.5647326  29.0224133  17.6045570   4.6857572  29.3037205  17.9952812
   5.8690476  28.4757595  18.3659210  -7.3785386   6.8832173 -22.1579189
  -7.3329139   7.8346515 -22.2211857  -8.0541277   6.6216021 -22.8154030
  12.3756466 -24.9882278   4.0233655  12.9611387 -25.0209560   3.3027842
  12.7818003 -25.5536251   4.6497302  24.6309280  23.9349861 -19.1367607
  24.6924973  24.3191204 -18.2389622  23.9734478  24.5766373 -19.5713329
  -0.6992499 -26.6845722  29.1505585  -1.4658974 -27.1705475  28.8935452
  -0.2196786 -27.4208317  29.6273689  29.4993496 -35.0804214  19.6517181
  30.2405987 -34.5562286  20.1027699  28.7439499 -34.7622337  20.2500744
   3.4973774  41.6347733  13.4710178   2.7123592  42.2017860  13.4884434
   3.3422947  41.1342163  12.5898438 -42.2385025  17.1497612  20.5477924
 -42.4530830  17.4550362  19.6321888 -42.5039024  18.0115433  21.0285378
 -22.7687836  -2.2737651  10.3068199 -23.3964329  -2.0434139  11.0158072
 -23.3114147  -1.9587412   9.5622234  -1.9935390 -14.6550035 -42.1754303
  -2.0158460 -14.1267653 -41.3050499  -1.2424114 -14.2616978 -42.6123505
 -22.2347088  39.4380455  24.5817337 -21.8134613  39.7297440  23.7379169
 -21.5861053  38.7580032  24.8598042   9.7741060  35.2721176  21.3665218
   9.3064623  35.5067940  20.5908680  10.6457148  35.0623093  20.9849701
  20.0139065 -38.0540695 -14.1884937  20.5652657 -37.8394089 -13.4224482
  20.0336246 -39.0463638 -14.2366962  31.5100918  18.6177902  28.4729843
  31.7354221  18.4997425  27.5196171  31.6083202  19.5681610  28.5710182
 -14.8304291 -20.6927052  -8.1813278 -13.8506422 -20.9518528  -8.2885971
 -15.1899967 -21.5134716  -7.7851582  27.4781017  12.1941328  -7.6222382
  27.1928139  11.3458691  -7.8835201  26.6347618  12.6569185  -7.3711548
 -16.7296715  19.4637318 -15.6314783 -17.0039959  19.2101841 -14.7538052
 -16.6600285  20.4668484 -15.4544258  17.7905636  -1.6524464 -44.6504135
  18.5737801  -1.0603299 -44.7797699  17.2948284  -1.1551360 -43.9606476
  -8.4237928 -23.4282703  -9.9358492  -7.7901654 -23.4913864  -9.1449709
  -7.9301920 -22.7689781 -10.4562435  -8.9121037  25.3146114   2.7168753
  -9.8821449  25.3060341   2.8610880  -8.7128439  24.3628674   2.9894757
  42.2430382   1.4642003 -26.5944099  43.0052643   1.8595617 -26.9592819
  41.5852127   2.1940169 -26.4642754 -16.4503078 -28.7236996 -28.7441845
 -17.4001541 -28.3406792 -28.7925549 -16.6741371 -29.5694790 -28.2853222
 -36.9927216  -5.4808421   7.4533668 -37.1249161  -6.2495532   8.0235033
 -36.6698418  -5.8790011   6.6108313  -5.3147039  38.0474815 -17.6627007
  -5.2965951  37.1265793 -17.7762547  -4.4436955  38.2413101 -17.3184433
  24.7865238   3.9675846   9.0988703  24.6835213   3.3369546   9.8172073
  24.5089664   4.8476820   9.5097589 -24.3410759   4.9424582   5.7700572
 -23.6111965   4.2891655   5.6814742 -24.3348236   5.1298771   6.7341695
 -38.0581322   4.0565972  -8.0915699 -38.1879311   3.7948480  -7.1336465
 -38.7657585   4.6831098  -8.1604252  19.2673664  36.7818298 -16.4679203
  18.4831219  36.2706108 -16.7108898  19.7734337  36.0644341 -16.0137062
   7.8564415   1.2954205  -7.3792958   8.6210775   1.8755295  -7.0817323
   7.9429812   0.5456061  -6.7467456   6.0171518 -42.4176674 -26.1262226
   5.3996067 -42.6902390 -26.8718987   5.7383523 -43.1045570 -25.4609604
 -37.4682388  -5.8269758 -29.2022057 -37.7837181  -6.3391271 -28.4584942
 -37.2688866  -6.5646977 -29.8832283  13.9140110  25.6139774 -25.9785271
  14.6654997  26.2563019 -25.8933392  14.4032860  24.7643852 -26.0842113
 -25.6742115 -22.6102600  -3.7558224 -25.5298386 -21.9017010  -3.0475049
 -24.9339771 -23.2109356  -3.5372503   8.2795734 -24.2049294   9.2297812
   7.3327551 -24.4477692   9.0745201   8.4480448 -23.7013836   8.4281349
  17.4124870  -2.5063069  28.2848206  18.1095848  -2.0585375  28.7723255
  17.8610268  -2.5888288  27.3976059   0.7271089  -3.3057132 -12.3728685
   1.6556545  -3.4103043 -12.5388632   0.6097919  -3.9614151 -11.6181326
  18.4009781  44.7383118  10.7971916  17.5968151  44.7848320  10.3035669
  19.0307217  45.2050896  10.1581144 -26.8205700  -9.8688107  26.7942486
 -27.3793468 -10.2045126  27.6272583 -26.4417210  -9.0741873  27.2770729
  28.2332077  22.7054996   0.2621035  27.2766705  22.4825249   0.3357487
  28.4133453  23.0350952   1.1698794  41.6766129  -0.2896573 -18.5908642
  40.9051056  -0.8644928 -18.4748306  41.2399292   0.5300186 -18.8501740
   7.9391990  22.5571003  -4.5406823   7.9856210  21.6081257  -4.2791152
   7.1260791  22.5753574  -5.0307279   9.7946739 -26.5243549   2.8474476
   8.9881086 -26.6607056   2.3596830   9.8909502 -25.5398846   2.7717638
  -0.8462387 -39.9527168 -15.9630346  -0.1964355 -40.6491089 -16.2832699
  -1.3969225 -40.5678329 -15.3555384 -40.1782875   8.7675104  28.3861542
 -39.6727257   8.6921606  27.5353069 -40.6898842   7.9553013  28.3786068
 -27.0777531 -40.3624039  -1.0645312 -27.6859283 -40.3354340  -1.8600363
 -27.7092075 -40.7814331  -0.4196412  -7.1817985   1.1615973  33.6824532
  -7.6745553   0.5088531  33.0837860  -7.6762772   0.8694369  34.5008430
  -1.5897003  30.5573711  34.6034393  -1.6149489  30.4553127  33.6437111
  -2.2864561  29.9689140  34.9307022  -6.6103630  10.6638145  42.8578835
  -7.4814334  11.0870104  42.5505371  -6.1151466  10.6254263  42.0626297
  -1.7833756  17.9237728  -6.2677693  -1.3834279  17.6150627  -5.4025664
  -2.7085991  17.6822147  -6.0790095 -24.5086441 -15.6472082 -34.0262909
 -23.8810139 -16.2507286 -33.5887947 -24.5150909 -14.9840040 -33.2137451
  26.3994331 -33.5808716 -15.8059273  26.6462135 -34.4865799 -16.1732483
  26.5680408 -33.7301712 -14.8539181  14.9519377  -0.0121041  28.8566628
  15.6613379   0.5919068  28.6175365  14.7174902  -0.3304826  27.9298153
  20.0627937 -16.0668278 -34.2084579  20.4052391 -16.5022564 -35.0433922
  20.9502792 -16.0582619 -33.7053642  -3.5185080   7.2562642  20.5151196
  -3.0529261   6.5745702  21.0288944  -3.7229743   7.9225125  21.2107220
 -21.9807205 -16.3154278  18.0839176 -22.0541668 -15.4728737  17.5871563
 -21.1997566 -16.1217213  18.6655788 -20.6912022  -4.9250159  36.4580956
 -21.6724625  -4.9744849  36.3786125 -20.4069271  -4.6218996  35.5935173
  19.1573429   6.4958663  17.4094849  19.0822544   7.4300108  17.3052235
  18.2600098   6.1855736  17.4840088  27.0472088  -6.3419280   7.3509912
  27.9456539  -6.3581452   7.7601013  26.5292282  -6.5625200   8.1357193
 -11.8318186  26.9453678 -22.4118099 -12.7729063  27.0079174 -22.0764580
 -11.7127132  25.9432030 -22.2979279  43.8571320   1.3514638   4.9285798
  43.6142540   0.6336243   5.5467949  43.9639168   2.0650547   5.5705695
  44.3809433 -20.4675541   9.2435045  43.9874039 -19.6265049   9.0031347
  44.0611839 -21.0752106   8.5099907 -24.2923794  11.1170883  10.3725767
 -23.6587276  11.7057047  10.0749006 -24.5640163  10.6534996   9.5367336
  25.2138023 -19.8699074  -3.5544636  24.5489082 -20.4031868  -3.0328424
  25.9829350 -20.2768269  -3.1025343   5.2854862 -19.5163879  41.7074471
   4.5791578 -19.9032841  41.0992737   5.3548832 -20.2991962  42.3148346
  -9.7200260 -27.0185642  -0.6696689  -9.8353872 -27.9013042  -0.2166851
  -9.3243761 -26.5317612   0.0172374  35.2146568   7.5088272  -6.6294141
  35.3094635   7.0838780  -5.7395673  36.0006561   7.0491600  -7.0584278
 -26.3450661   0.9546260  29.1223602 -26.8602314   0.6148750  28.3793640
 -26.4583549   1.9107981  28.9499931  21.4731846  44.4408340   8.1324205
  21.7707806  44.2089958   9.0231295  20.8420811  45.1839485   8.4448605
  27.9761333   1.5230869 -23.2448978  28.7570591   1.5198315 -23.8821125
  27.7197990   0.5717098 -23.3194618 -30.5652218  15.3735094  35.8726463
 -30.6067257  16.3371201  35.7941208 -30.3610764  15.0936842  34.9396362
  38.2220764  -8.7725878   8.2902269  38.5035210  -8.1739101   7.5800014
  38.9776001  -9.4184694   8.2048283  24.0060215 -25.5433865   8.1401892
  24.4550323 -26.3662319   7.9062824  24.1457672 -25.4447117   9.0617142
  11.9759340  48.3946686  12.2027435  11.0797157  48.6457520  12.6601181
  12.4794607  49.2085037  12.2888899 -11.2014580  10.3799009 -22.1070213
 -11.7992601  11.0042744 -21.5889263 -10.4500227  10.3079567 -21.4613686
  10.9490461  13.8208532  -4.8317270  10.8685741  14.7599735  -4.9023314
  11.5020227  13.7099371  -4.0397415  -0.1311654  21.7994080  24.2554893
   0.1135286  21.0763359  24.8300171  -0.1815403  21.3930550  23.3735008
 -17.1113987   6.5474215  49.6183548 -17.4981880   6.0612407  48.8624878
 -17.8440666   6.3519607  50.2980995 -21.8488140  -6.1498475  -9.8612633
 -22.5881424  -5.5418215 -10.1262589 -21.7446671  -5.7162509  -8.9422379
 -27.6640263   5.3186064  33.6452751 -28.1037903   4.8271217  32.9609909
 -26.7323742   5.1984978  33.5437088  -3.6277964 -12.0004892  -9.4919338
  -3.8328481 -11.1240177  -9.9106178  -2.7797382 -12.1486559  -9.8238430
 -22.7389908  -2.8887265  43.0115395 -23.5189571  -2.8100364  43.6269760
 -23.2176304  -2.8188367  42.1275673 -14.3441000 -16.0425396  12.5957851
 -14.3896475 -15.2571898  11.9761543 -15.2746172 -16.3620472  12.5305634
  38.6302071  -8.7954378  26.5185738  39.2957306  -8.4631491  25.9100075
  38.6764793  -8.1877289  27.2632065 -27.8229370  29.7995644 -13.4074993
 -28.5097733  29.3987503 -13.9596310 -27.7392426  29.1082077 -12.6915159
  33.2883301 -30.2312641 -20.4880638  33.4426956 -30.4345436 -21.4450741
  33.0625038 -31.1138840 -20.1211987  22.7263145  -1.3591181  -8.1511889
  22.6167450  -0.4799841  -8.5044403  23.2546520  -1.1798398  -7.3000193
 -18.5552006   1.9264240 -17.5494881 -19.3725128   2.2871592 -17.1575184
 -18.7381554   0.9440328 -17.3483105 -12.6064205   2.7853239   6.5810099
 -13.1068192   2.5127745   7.3481421 -13.1893997   3.4898016   6.2517061
  32.6951866 -16.7866096  25.7431259  33.4893150 -17.3140297  25.5258121
  32.7654266 -16.8846397  26.7468472  31.3275070  33.7595825  -4.5266838
  31.1674290  33.0962257  -3.8054900  30.4139881  33.8087921  -4.8406210
  -1.1931891  21.0595722  41.3613625  -1.8240004  20.5544682  40.8650665
  -0.3865911  20.6066475  41.1446190 -35.5948639 -21.7858772  20.1215839
 -36.1499977 -22.2442207  19.4498692 -35.9889679 -20.8644543  20.1082726
  11.6790009  -7.7161121   2.7072635  11.7127695  -6.9082417   3.1933451
  10.9460516  -8.1932945   3.1353281 -22.0687332 -22.7998142   4.2651596
 -21.6984138 -22.0295582   3.8211730 -22.4431667 -23.3092842   3.4777677
  11.5685911  50.5499191 -11.8838148  11.5919352  50.7941818 -10.9558563
  10.6741867  50.5535660 -12.0815134  -7.5921078 -13.6645327   3.3963201
  -7.1083217 -14.5063248   3.3145423  -7.1046004 -13.1827574   4.1102877
  -0.8573884  13.0971031 -11.2402830  -0.2858782  13.4392757 -10.4907789
  -0.1721965  12.6729832 -11.7970409 -36.1702423  14.4388561  -6.1375880
 -35.9634094  15.1840506  -6.7435517 -36.3302879  13.6982870  -6.7721186
  21.4636955  12.3570614  18.6176186  21.2241058  13.1953173  19.0333500
  22.4248142  12.4244232  18.4949417  32.8414764 -29.0081444   8.5019455
  32.3281174 -29.9222965   8.3792906  33.5645523 -29.2562389   7.9217949
   4.3035011 -18.1240253 -26.8783569   3.4123950 -18.0465450 -27.2971325
   4.6839848 -17.2649498 -27.0984688  25.4522629 -21.8194160 -10.8901176
  25.4119949 -22.1256065  -9.9894228  24.5438690 -22.1590862 -11.1414728
 -36.0282631 -24.4186096 -16.2668228 -36.4399376 -24.3778877 -15.3912220
 -35.0910797 -24.5410290 -15.9025335   8.0391340  42.9050407   5.8355350
   7.2427216  43.3660698   5.7234235   8.6781540  43.5083733   6.2315750
 -12.2437773 -17.5593700 -19.0601807 -11.3744974 -17.8182125 -18.6286469
 -11.9825754 -16.5914822 -19.1865044  14.6216698   3.6609390 -30.9211998
  15.4251928   4.2562261 -31.0550976  14.0776587   4.0333056 -31.6662102
 -29.8871632   5.2932701  -5.4183969 -30.0981007   5.2939372  -4.4683294
 -30.0837212   6.2630205  -5.6378837   5.6054592  30.8518906  20.2366581
   4.9700570  31.4627056  19.8348446   5.0969663  30.0226269  20.1646824
   0.2569437  -3.3607125 -19.9988480   0.9982380  -2.7469418 -20.2741718
  -0.5086530  -2.8170741 -20.3738804  12.1123648 -15.5153933 -21.4560242
  12.6915054 -14.8250399 -21.9609432  11.5914898 -15.7838707 -22.2074032
  -7.1956563 -29.6638165  -8.3703156  -6.8359532 -30.5087891  -8.7649689
  -7.6031966 -29.2841244  -9.1998301  16.2903519 -16.8999023  43.4335976
  16.4509087 -16.2949944  42.6740456  16.1654472 -17.7798138  42.9549599
 -37.5798683  30.0345936  22.9318256 -37.9915924  30.7487469  23.5076847
 -37.8508072  29.2488041  23.4659882  27.5294399 -28.9813747  27.3329201
  27.0322628 -29.7418957  27.7433949  27.4726887 -29.2617607  26.3945084
   6.3304882   5.2407374   4.3105912   6.7792177   4.6402011   4.8804283
   6.9935241   5.3824549   3.6051650  21.5052757   8.5680771   1.3251761
  21.0443745   9.3178158   1.6834757  21.4200592   8.7162104   0.3839883
   2.5806367 -10.2244749 -47.5402222   2.4445591  -9.4209003 -46.9196777
   3.4856198  -9.9621553 -47.8640213  25.8166103  22.6075573  -8.7059965
  24.8115082  22.5470638  -8.7053194  26.0339279  21.6876564  -9.0095501
 -42.8974380 -22.9423370  10.9402809 -42.3251762 -22.5990677  11.6156130
 -42.3229790 -23.0861034  10.2005615  42.4091988 -24.6255665   3.8436139
  42.3030701 -24.2479897   4.7660384  42.1113434 -23.8757877   3.3230093
  -6.8392119  18.4263630  42.9515610  -7.7566781  18.6717224  42.7853394
  -6.3943300  18.4138317  42.0445099 -38.9784088  -3.4200723 -25.1863422
 -38.4240646  -3.1852651 -25.9624844 -39.7414284  -3.8002777 -25.6257839
   8.0783329 -30.9268188 -35.7625771   8.2411480 -30.4312744 -34.9237061
   7.4550381 -30.2594357 -36.1928291  -1.7758117 -33.7177048 -13.0849714
  -1.6236023 -32.9922981 -12.3522844  -2.7899845 -33.5408745 -13.1501398
 -29.5244694  32.4688492  -4.6562057 -30.3250656  33.0628738  -4.7721944
 -30.0143566  31.7211933  -4.2218513  28.2930813 -18.1620598   3.5977473
  27.6872959 -18.1338024   4.3906498  27.6191921 -18.5347290   2.9812992
 -36.4026756  17.2370281   1.2156578 -35.7920341  17.8247166   1.6883700
 -35.8007126  16.8252220   0.5926111   1.5009223  35.1677208  15.9916515
   1.2785578  36.1501465  15.8138552   1.9391502  34.9864426  15.1517143
  -6.9488921   4.8027506  31.9349651  -6.2535553   4.2699165  32.3128891
  -7.7429905   4.2415819  32.0452194   4.5555310   2.4547172 -50.7632103
   5.0937877   2.1919081 -51.5197487   5.1069064   2.2130771 -49.9975777
  30.2419567  36.5501938  -2.8917456  30.0209312  36.6053810  -3.8489702
  29.3702202  36.7508774  -2.5111511  18.8791237  -1.2114042  42.5873718
  19.6400490  -1.2210099  43.2194443  18.1997318  -1.6478828  43.0778236
  28.0698147  15.7408133 -30.0960941  28.6331921  16.4119091 -30.5355740
  28.2736568  14.9569969 -30.5941257   5.8066592   8.3816519  -7.2221041
   5.2261987   7.6087842  -7.2677479   5.4635324   8.8222618  -6.4383173
 -21.9806404  35.9637642   4.2979941 -22.3836689  36.5319328   5.0057249
 -22.3517075  35.0607071   4.5476508 -17.6561031  23.1581097  20.6259060
 -17.2599983  22.7201252  21.4591503 -18.6116848  23.0002155  20.8721142
 -15.8094740   7.4594684 -49.2236252 -14.9605532   6.9293389 -49.1249352
 -16.3366814   6.9814858 -48.5195923  21.1843033  -7.7171507 -45.3670006
  22.1453190  -7.5418463 -45.5938034  20.8451786  -6.8262458 -45.2212791
   1.4723246  16.1594963  25.8941784   1.2369133  16.6097355  26.6827869
   0.9539218  16.7170677  25.2262459  28.7356262 -26.4511261  21.6350651
  28.9853973 -26.6656761  22.5493011  29.4671230 -25.8407536  21.3457222
   6.4616504  29.6724167 -12.4731646   5.8576174  30.1377163 -13.1429310
   6.0676203  30.1025715 -11.6634417  -7.0374808   7.6454263 -30.3058300
  -7.6964588   8.0277452 -29.7337761  -6.2252917   8.0501966 -29.9581413
   4.7892475  28.4950371  22.0751190   4.2403703  29.1603279  22.4959240
   4.4205766  27.6542454  22.4655704   3.7252791   0.6160296  47.4825325
   4.1108351   0.5689864  46.5838013   4.4330544   1.0309666  47.9452896
  11.5922537 -37.8410683  -1.5828460  10.7280388 -37.9074707  -1.1965705
  11.4458218 -37.3748169  -2.4394767 -33.5031548 -11.2238951  -8.4990892
 -34.3098679 -11.8273106  -8.5774384 -32.8822517 -11.9082928  -8.1314011
 -37.5000191  11.8728180  18.1552811 -37.8940697  12.7787533  18.2265358
 -38.3023911  11.3915968  17.8120785  41.6750832 -17.6017647  18.6632442
  42.4132500 -18.2953777  18.7895184  42.2047958 -16.9201794  18.1549568
  10.8326588  22.6812401   5.5047712  11.4010220  22.5795822   6.2784672
   9.9504328  22.5481567   5.9386849  24.3181458 -30.8907166  -8.6470785
  24.5160103 -29.9295826  -8.7449608  25.0346584 -31.2233315  -9.2671490
  27.8983803  25.0982056 -13.0880718  27.4807377  25.9547062 -13.1638041
  27.9578266  25.0473480 -12.1090164  18.1704330 -10.0490961  30.3991127
  17.9027519 -10.8408051  30.9248848  17.4962654  -9.4082346  30.7652779
  19.3913975  15.9541149 -19.6381721  18.5439835  16.1374359 -19.2251873
  19.1015453  16.0557137 -20.6176662   5.6513534   4.6250186 -36.0769730
   6.2578917   5.3226647 -35.6568069   4.9888196   4.5534439 -35.3939247
 -16.4811745 -16.2582893 -27.4479942 -17.1763783 -16.9532337 -27.5426273
 -16.0041218 -16.6640320 -26.6903744   5.8478322  10.0776987  30.5415020
   5.3434267  10.9278202  30.5565128   5.1909547   9.5387669  30.9899521
   6.8844380  -9.3788805 -26.5273685   7.2948751 -10.3085680 -26.5633469
   7.2680173  -9.1330261 -27.4552879 -35.8373146   1.3777874  32.5406075
 -36.4805870   1.7144977  33.1650772 -36.0840569   0.4424137  32.4979439
  21.7283669  41.0108681 -15.5234690  21.6375084  42.0213432 -15.6425581
  21.1802597  40.9996643 -14.6423206   8.4879618  33.4092102 -25.9878635
   9.1859007  34.0692062 -25.9883308   8.8330450  32.7294731 -25.3741055
  -9.6233120 -35.5056763  -5.5798011  -9.6606941 -34.7398949  -6.1513572
 -10.3314886 -35.3238525  -4.9028397 -24.2556858 -18.8760204  -7.7691112
 -24.2906113 -18.2507057  -8.5146494 -24.8463326 -19.6128597  -8.1220942
 -18.5334206  39.8630219  24.8840160 -18.7566662  39.6091270  25.8337975
 -17.6942863  40.3241844  25.0641556  31.0148811 -32.9688301 -11.3196392
  30.3041458 -33.0108452 -11.9902525  31.0435352 -33.9434395 -11.0766983
   3.5122893 -28.4303226  37.3977356   3.0323005 -29.1443577  36.9104691
   3.0481675 -27.6684113  37.0916214  39.7980499   1.6646363 -19.0807533
  39.1805344   2.1679206 -19.6623535  40.6425285   2.2087319 -19.1800461
  -9.1125813  -2.0121193  45.3517227  -9.4021511  -1.0870050  45.5607033
  -8.2818069  -2.0898659  45.9394226 -36.4317360 -29.1500168  15.4708691
 -36.7738533 -28.3205795  15.9207115 -35.9533768 -28.6608696  14.7395344
   5.1132469   0.2657273 -46.1421204   4.7683396   0.6400381 -45.2871933
   5.2539325  -0.6531812 -45.9109192 -40.6227875 -23.6271610 -15.5997086
 -40.4746628 -24.5833702 -15.3150711 -40.7167664 -23.2595749 -14.6940289
  24.5489159  -6.7050366 -20.7829075  24.8358860  -7.3216991 -21.4782810
  25.3899002  -6.3048844 -20.4695854  -8.0025272   2.6912587  38.1856155
  -7.8964195   3.3219059  38.8602028  -7.0834455   2.6286666  37.8285599
 -18.7008495  12.2139511  35.8510208 -19.3821373  11.6033058  35.4327774
 -18.6166039  12.9058170  35.1507263  11.0767117  16.4908466  -5.2477493
  10.7728271  17.0386658  -4.4107866  10.2569094  16.5332527  -5.7115397
  -5.2013087 -17.6528759  20.0421658  -4.4199376 -17.1216965  20.1415310
  -4.9337554 -18.4302692  19.5886230 -38.5939636   8.5671883  25.8762302
 -38.0338669   8.5320473  25.1553497 -39.4687996   8.4024305  25.4942932
  12.0526915  -2.9166422  13.6133423  12.7126083  -3.5936654  13.3309259
  11.5333786  -3.4254565  14.2189484  -6.0050201  -1.7573005 -37.6479340
  -6.9608917  -1.7496228 -37.3621140  -6.1264868  -1.4855999 -38.6079750
  -2.9784889  24.4191475 -22.3599472  -3.8891950  24.7803402 -22.1027813
  -2.5952764  24.1623993 -21.5147400  23.7888489 -10.0770407  -6.0892172
  23.7521439  -9.9432688  -7.0650368  24.7178326  -9.9563780  -5.8719940
  16.9667625  48.6219330  -6.6949816  17.4931564  47.8710976  -7.0111289
  17.1155777  49.2682877  -7.4602337 -24.3882504  14.2967749 -14.5073395
 -25.1308575  14.4212179 -15.1214972 -24.8403587  14.4757977 -13.6612034
   1.8363225 -28.9852657 -32.8332977   2.8319499 -29.0180435 -32.7323112
   1.6464736 -29.9735985 -32.7699661  -0.6024546 -18.5602264 -21.2150192
   0.0581296 -17.9792938 -20.8575935  -0.6537300 -18.2807007 -22.1492062
  -0.8552345 -19.9426708  10.0767660  -1.8377701 -19.9993267  10.1231213
  -0.6212421 -20.8129597   9.7461691   2.8948877 -10.4195766 -19.0276814
   3.2560608  -9.7014389 -19.5261097   3.0734327 -11.1658001 -19.6883678
  40.8017540  28.5508785 -16.9983978  41.5022888  28.5230331 -16.3461494
  41.3358917  28.6038399 -17.8113079 -28.1988182  -5.5511541 -34.1737213
 -29.0814667  -5.3624177 -33.7998428 -27.6512280  -4.8568983 -33.7283020
   3.1161866   0.5621622   0.8781200   3.7575114   0.3394138   1.6413493
   3.5814896   0.0110667   0.1997029 -32.2297325  18.6348019  25.9062920
 -31.6518021  19.2384262  26.4630508 -31.5361614  18.1190395  25.4851608
  42.0148697  25.0562191   8.1739340  42.8440247  24.8191452   8.6574516
  41.6800575  25.7376423   8.7630892   6.9152684 -29.1506500 -25.5490627
   7.0621395 -29.0018311 -26.5727348   7.7914424 -29.0004597 -25.2390995
 -32.4952698  29.4547348  15.1283293 -32.5890007  28.5499687  15.3299837
 -32.4816246  29.9294834  15.9874601  25.0336113   9.0974274 -27.7533760
  24.1633415   8.6389446 -27.8001480  25.5085068   8.6809502 -28.4415455
 -30.3039951 -20.9189529 -22.5057411 -30.1561890 -21.1196480 -21.5667744
 -30.5278435 -21.8375893 -22.8758297  39.9260902   1.3799374  16.8446159
  39.6347847   1.6110184  15.9387760  39.1736603   1.7396331  17.3559322
 -29.2158012  -0.4421099  -6.2302885 -30.0841808  -0.4197234  -5.7192798
 -29.6303406  -0.6614022  -7.1153674  17.5426197 -13.7704134 -17.1203213
  17.1238670 -14.2069654 -17.8953915  17.6882954 -14.6175079 -16.6301956
  41.7209320 -19.0777225 -25.8230820  40.8050499 -18.7450428 -25.7659111
  42.1605148 -18.1660995 -25.8264809  17.2584057 -17.2706718 -39.9656525
  18.0703754 -17.1563568 -40.5035133  17.1048450 -18.2099667 -40.0085831
  -5.1414547  14.6227417 -25.9597893  -4.6004162  14.1768637 -25.3007374
  -5.6334238  13.8425245 -26.3043442 -29.9395943  29.0586147   0.9333000
 -30.2878342  29.5043411   1.7715461 -30.5503826  28.2804260   1.0424722
 -39.4767494   1.2187158  -9.6995773 -38.7259674   0.7818721  -9.2038097
 -40.0183029   1.5696068  -8.9486160  -5.6520939 -24.9765186  21.0270119
  -5.3837738 -25.8858719  20.8691826  -6.0842810 -24.7182636  20.2026310
  32.9196739 -10.6697969  33.2801895  33.6684418 -10.9088593  33.8518105
  33.4403763 -10.3777809  32.4694443 -26.5318241 -10.0863562 -32.3628273
 -26.7236938  -9.2401514 -32.8284035 -26.8168087 -10.7232189 -33.0973206
  37.0167618  -0.2662774 -21.8966618  36.7898293   0.6237976 -21.5603733
  37.0107536  -0.0979070 -22.8456707  40.2925720 -10.4056606 -23.5650902
  39.7145042 -10.3505774 -24.3627644  40.3313942 -11.3872509 -23.4819393
  14.6068192  37.8604393   3.5464323  14.3383160  38.3133240   2.7230947
  15.0450344  37.1080284   3.1729507  22.7353745  21.0477047   6.5538664
  21.7642708  21.1224651   6.5378838  22.8978462  20.4890938   7.3078613
 -27.6180706  23.4989071  26.8667850 -28.5263805  23.5705681  27.2402287
 -27.7156429  23.9951115  26.0186558  -8.3970604 -14.9215879 -20.0475578
  -8.5621986 -15.8594084 -20.3292255  -9.1701736 -14.4422684 -20.3408184
  19.3215294  19.9485455 -12.9731083  19.1758251  20.3645535 -13.8683548
  18.6849461  20.4764996 -12.4172487  -3.9369662 -24.9503117  38.0824089
  -3.5810828 -25.8631592  38.1832390  -4.7774377 -25.1831760  37.7186317
 -15.5561190  22.1563759  10.1569633 -14.7599897  21.7314682   9.7162819
 -16.2710800  21.8893948   9.6340532   8.0245972 -36.0163918 -11.7707233
   7.3628583 -36.5041199 -11.2766571   8.8496370 -36.3467445 -11.4562197
  41.9705505  19.2523117  21.9496822  42.2102394  18.9392586  21.0198765
  41.2638435  19.8984032  21.7078514   4.3426824   4.2885137  32.7295647
   4.4100018   3.3861289  33.0260811   5.2000427   4.4910264  32.3571739
 -38.2475929  14.1595812  23.9346275 -37.4746971  13.6721201  23.5299721
 -38.8101196  14.1243973  23.1735268  33.7775803  32.4523048 -18.4282227
  34.3492241  32.6063614 -17.6847954  32.9771996  32.1128464 -18.0424118
  15.1977329  31.9376373  24.4130287  14.4081564  32.4599228  24.3048973
  15.1754570  31.7626781  25.4075890  21.4015198  32.7340508  -6.5598564
  21.4715099  31.7332821  -6.5682592  21.5888004  32.9512787  -7.4698730
  10.6722794 -11.4395084 -21.1148853  11.3246422 -10.7342033 -21.1735935
  11.0534258 -11.9892454 -21.8716927 -11.5575600  13.1236420  -9.1806965
 -12.0299702  13.6225672  -8.4876280 -10.6222191  13.3419333  -8.8718929
 -11.2508144 -23.3086548 -13.1901522 -10.7542982 -23.4088593 -14.0497293
 -11.4211817 -22.3247490 -13.3337851  41.4652710  23.7388477   4.0470972
  42.1398239  24.4455013   4.3326740  41.7407112  23.5422153   3.1379049
  21.7123966  34.6725349  14.5609484  21.1959572  35.1168022  13.8320789
  21.1378307  34.9045563  15.3230438   4.0950608   5.9160933  -0.5476397
   4.1261439   5.0212474  -0.1162827   3.1481550   5.9321580  -0.7497296
 -14.6790094 -14.7954044  33.2240067 -14.1737795 -15.1554070  32.4881821
 -15.4604950 -15.4087505  33.2298622  15.9121094 -15.1109085 -48.4277191
  16.0373173 -16.0014153 -48.8843040  15.0498018 -14.8756714 -48.8077507
 -22.6299019 -11.1921301  13.3377171 -23.4269676 -11.4904337  13.8434734
 -21.9572296 -11.4890404  13.9880915  20.0463772   7.4340372  14.2129030
  20.6954632   6.9111514  13.6700010  19.2458458   6.8899031  14.0652819
  16.7602062 -17.9944630  21.3382130  17.4231415 -17.4030704  21.7626801
  15.9542131 -17.8578587  21.9355659 -13.8821039  37.9110451  29.3412418
 -13.5809574  37.7033234  30.2551937 -13.0427313  38.4049530  29.0471077
   0.5356640   8.7118692 -48.7984047   0.7079573   7.8555460 -49.2639008
   0.8758414   8.4651270 -47.9097557 -33.3107452  19.4579849 -27.1887875
 -34.2051086  19.6913338 -27.4774685 -33.0429878  18.8757553 -27.9578514
 -37.7780724  29.7924633  -9.0153780 -36.8891563  30.2082672  -9.0189753
 -37.8340988  29.4758415  -8.0888548 -23.3237743  -8.9455910 -27.9413376
 -22.5863934  -8.8340054 -27.2632351 -23.6520729  -7.9837532 -27.9429321
 -25.6435509  36.2689095 -25.8864479 -24.6909714  35.8453598 -25.9733486
 -25.8961639  35.9203682 -25.0595551  22.2552814 -12.0634804  -1.4438984
  22.4330921 -11.1414700  -1.2277420  22.7321854 -12.1604710  -2.2980084
 -27.3071899  33.4666634  -9.5806837 -26.6866360  32.7121849  -9.7451315
 -27.7612915  33.1372566  -8.7413254 -11.5517225  29.7797737   8.5590391
 -11.9149408  30.4903564   7.9172916 -11.1382027  29.1300392   7.9411931
 -21.4359131 -46.1544609  -7.8333249 -21.7347164 -46.7563934  -8.5168095
 -22.1828022 -46.3275986  -7.1667624  17.0918312  -8.4483566 -10.7306404
  16.7710514  -7.8927279 -10.0152206  16.2473202  -8.8873587 -10.9449282
 -26.9232559   4.5502939   5.8292599 -27.2386036   4.1861134   4.9886994
 -25.9298630   4.5629716   5.7105722  -8.9113092  -6.3464322  -2.8631039
  -9.3651428  -5.5182171  -2.4792571  -8.0453215  -6.2432957  -2.4495730
 -30.4929085   1.2260906  20.5134850 -30.5889130   2.1915586  20.8413601
 -31.4719906   0.9636297  20.6082745 -22.1013756  16.9546375  32.3535995
 -21.2876072  17.4447918  32.5063210 -21.8813705  16.0702782  32.7233238
   3.3164651  11.6856260  13.0483360   4.0683770  12.2438803  13.3518286
   3.1389158  11.0842028  13.7746716  -6.0189085  43.2579079 -29.9063606
  -6.7433739  43.2323837 -30.5475330  -6.1902723  44.0816193 -29.4507008
  -7.6479778 -12.3387127  -2.2714360  -7.4504166 -13.1533022  -2.6920710
  -8.3973608 -12.0038729  -2.8462679  23.7879791  -7.4342599  15.1365223
  24.3104095  -6.9385009  14.4470186  23.1192493  -6.7622232  15.2691479
   5.2448754  -5.9118905  25.2832947   5.4153595  -5.3671618  26.0306206
   6.0718589  -6.4032311  25.1734829 -11.6379471 -46.4295731 -22.2277985
 -12.1944752 -46.6189232 -22.9372902 -10.8131599 -46.7940407 -22.5263004
  -2.9476941  -7.1549029  23.8151989  -2.8911386  -6.2831984  23.4824848
  -3.7611854  -7.0752687  24.3660736  39.9384575  26.7329388  -4.5651460
  40.1419678  26.7299137  -5.5537119  39.2257996  26.0536251  -4.5949159
 -31.9836483 -34.5173187  -8.8450117 -32.5836029 -33.8077049  -8.9191761
 -32.5358734 -35.3251877  -8.7529278 -42.2860260   2.7060032 -18.5878468
 -41.5678940   2.0710897 -18.4895573 -42.6138229   2.7618465 -17.6851864
  41.1450005  18.2593937  13.9606619  41.8895683  17.6464176  14.0187407
  41.0576515  18.4827423  14.9611950   6.0390444  25.5034828 -19.3410931
   6.4190550  24.9067478 -20.0783539   5.1139226  25.4399662 -19.6000729
  34.5246353  11.7672749 -20.5721836  33.8351479  11.1826811 -21.0359917
  34.3461533  11.5905581 -19.6341515 -42.5339584  28.3616543 -12.3923922
 -41.6144142  28.6341782 -12.6941729 -43.0648155  28.9084930 -12.9904346
 -23.8177662  30.1170769  32.6010170 -22.9420509  30.3537006  32.2866745
 -23.6928768  29.8655052  33.4948502 -17.9444046 -41.7623863   0.2567098
 -17.4766426 -41.2774963   0.9913466 -18.8319454 -41.3482513   0.3501650
 -17.6100559   7.5212317 -38.8263817 -17.6583252   6.6973739 -38.3099899
 -17.5574551   8.1957464 -38.1088600  30.6253967 -28.2686596 -22.3778191
  31.5700150 -28.1108284 -22.1810360  30.6136322 -29.2628727 -22.4069748
  17.7855453 -14.8973961  29.9175034  18.4172630 -14.2419910  29.5432110
  18.3787003 -15.5289984  30.3283081 -10.5624933 -46.4395294   4.7274871
 -10.2648315 -47.2799187   4.2619061 -10.6074343 -46.8495331   5.6494937
 -39.8668251  24.8972721 -15.8213444 -38.8607101  24.8709030 -15.8590221
 -40.0679398  23.9914112 -16.2669277 -11.9510603 -13.6125622  37.9623528
 -11.0552549 -13.4692965  37.4994392 -12.4287958 -14.1368103  37.2961807
  20.2151432  22.4814758 -29.8607826  20.0724201  23.1722603 -29.1432724
  20.0269318  21.6737671 -29.3528366 -12.8305902  31.2569790  -6.7689490
 -12.6111450  30.3491421  -6.3893414 -12.0499153  31.3846760  -7.3716984
  25.8296318 -11.4486542  40.2206612  24.9603367 -11.1438627  40.0076447
  26.2524185 -11.5675459  39.3580399  15.3548603 -33.3971405  -7.9865160
  14.6440315 -33.6342278  -8.6172867  16.1320591 -33.6492310  -8.5118380
 -40.5324974  28.2013054   1.6823251 -40.2308617  28.8084240   1.0226415
 -40.3947868  28.5581398   2.5369747 -23.2691650  -9.7981930  16.1232719
 -24.0782032  -9.5079775  15.6100111 -23.6063728 -10.6062479  16.6206512
  -0.6384642  41.2672005  15.7705307  -0.1980064  40.5088921  16.1357021
  -1.2569246  41.5008888  16.5227547 -15.9639311  33.6045418  39.8616104
 -16.1882305  34.3734245  39.3047333 -15.7997799  32.9213867  39.2582016
  39.6284904  -4.7871480  35.1084023  40.4160500  -4.4067883  34.7016830
  39.9089203  -5.7282233  35.1605492   2.6580567  31.3366814 -34.8909950
   2.2003427  30.6138687 -34.4357452   2.8080964  31.9458389 -34.1791344
  14.3624916 -34.9511299  -1.6320344  15.1751776 -35.1277199  -2.1729877
  13.9353237 -34.3021164  -2.2542524  36.1943550  36.8358002  17.6826763
  36.9371223  36.3169975  18.0177021  36.5053711  37.1403008  16.8242512
  39.4199829  12.0038643  -0.4973384  39.6231308  11.0317383  -0.5385611
  40.2241364  12.3250875  -0.9753830  34.7046509  21.0958900 -24.4501419
  34.4115143  20.9368954 -23.5181007  33.8849411  21.4714165 -24.8235035
 -27.8219032 -19.0302696 -22.4039841 -28.2220230 -19.7865486 -22.0128326
 -28.5757446 -18.5913105 -22.8371220  25.9881992  -4.8508258 -32.6279335
  25.4565010  -5.5014071 -33.1381340  25.4871941  -4.0305562 -32.8354797
 -13.9061155   6.0364094 -33.4934807 -13.2417994   5.5080090 -33.0749626
 -14.2838812   6.5403671 -32.6905060 -33.5312347 -35.8310547 -14.6181984
 -33.9751701 -35.0267906 -14.7730274 -32.5834618 -35.6413078 -14.7155085
 -13.7353611 -15.0896702  29.2543354 -14.1263590 -15.5520315  30.0148315
 -13.9444771 -15.8267498  28.5372715  15.1352243  41.6942902  -5.4092069
  15.8986053  41.3347626  -4.9181414  15.5544739  42.2204971  -6.1120701
  13.5702629  26.9622059  29.6855030  13.0171299  27.7526894  30.0229301
  14.4324455  27.1760349  30.0497513  -7.7182655 -23.3363800 -24.7214108
  -8.5457134 -23.0181141 -24.3317604  -7.8663955 -24.2715950 -24.5179462
  43.3810463   3.2282062   6.9428606  42.5255623   3.5297229   6.4836969
  43.3221703   3.8713622   7.6737704  30.3636761 -24.5727844   5.7206969
  30.2848129 -24.3238735   6.6510482  29.5408802 -24.9492931   5.4876451
 -40.2786674 -15.3301420   1.1848350 -39.3237762 -15.1945038   1.0369163
 -40.3211479 -15.4065895   2.1516116  14.7442503  -6.2984414 -16.6464882
  14.3811693  -6.4833903 -17.5064869  14.3490505  -6.9924479 -16.0727539
  10.9298744  -9.2918024  37.9259033  10.2413425  -9.0969238  37.2701340
  10.6067467 -10.1850395  38.2722626  15.4411793 -10.4389315   5.9798055
  15.5017395 -10.7329817   5.0338273  15.0889940  -9.5608187   5.9314561
 -35.3059540  -4.8853598  12.4863491 -35.5120735  -3.9173646  12.5022764
 -34.7890587  -4.9567561  13.3353300  25.7569351  42.7182426   4.7309332
  25.8987446  43.2134171   5.5400233  25.7339706  43.3998642   4.1120515
  12.1314363  -7.6240249  35.1909637  12.6907473  -6.9078517  35.6432838
  12.6230736  -8.4132328  35.5550919 -10.5513916  10.4738417   6.5392222
 -11.1321230  11.3226957   6.5485678  -9.8562012  10.8066902   5.9293175
   1.9309605 -19.0007629  15.3265171   1.7257086 -19.3953285  16.1840534
   1.3576583 -19.4519386  14.6635561   7.9094419 -13.7254677  -8.3550491
   7.7422385 -13.3519344  -9.2344923   8.1980028 -14.6149311  -8.6440449
 -20.6112690   0.0381904 -21.0529900 -19.8041534  -0.3930463 -20.8067265
 -21.3417606  -0.4049490 -20.6519413   5.3399172  -3.6298666 -24.0877419
   5.6993990  -4.0765142 -24.8766441   5.5759726  -2.7212844 -24.3137264
   6.6968012   1.6286354   0.6009876   6.3359990   1.0124882   1.3051283
   7.5101862   1.9588280   0.9659826 -11.1740484   9.4054317  31.2644882
 -10.3703871   9.6389227  31.7909031 -11.7670279  10.1287756  31.5800171
   5.2008410  -4.5772414  39.8649254   5.0374250  -5.1614399  39.0952110
   6.1076040  -4.8061118  40.0938911  -5.0859809  20.4497662  15.0355864
  -5.7457967  21.1590023  15.2337303  -4.9348001  20.0656490  15.9431782
  18.3163013 -23.2878170 -43.3329239  18.4383736 -23.7934341 -44.1586647
  17.3680992 -23.4841480 -43.1817894  21.3445263 -13.5230799 -40.9059525
  22.1784630 -14.0058889 -41.1200943  21.0718708 -13.4500389 -41.8738365
 -40.7050934  17.0604172  24.3144913 -40.7312813  16.4149208  23.5447502
 -41.5717621  17.4580040  24.1845970  11.8596106  45.6511765 -13.2507191
  12.3086081  46.3117256 -12.6201410  12.6607533  45.0715828 -13.4177208
 -32.2243576  32.4173660   8.7612066 -32.7739677  33.0974083   9.1408024
 -32.1313591  31.8169346   9.4807119  -5.4631734  28.8976593  -5.6812701
  -5.8637438  28.1061420  -5.3064265  -6.1237707  29.3611908  -6.1836820
 -27.7148228 -18.2785378  28.0222778 -26.9734402 -17.7715130  27.5634708
 -27.3701973 -18.2842159  28.9166832   5.0142846  43.5468903   1.7745522
   5.3962889  42.6964951   1.9651605   4.1238718  43.3087540   1.5212508
 -18.8353939 -27.7673187 -28.9822483 -18.5921326 -27.0163593 -29.4908371
 -19.7576408 -27.8869705 -29.2284241  -2.9225481  37.8403664  15.2691422
  -3.3477228  38.6870995  15.0571222  -2.6889842  37.5334015  14.4208822
  19.3040924   3.4653726  33.1414566  18.8579750   3.5250621  32.2520027
  18.7523022   2.7919273  33.5483818  24.8218346 -31.6628666 -15.8307037
  25.4528885 -32.4669762 -15.8951597  24.4074383 -31.9639130 -14.9865274
  18.8926144  -2.0027452  21.5027142  19.5932579  -2.4834380  21.0267639
  18.3324661  -1.7377741  20.8219414  -4.7120600 -37.4765587 -25.2095680
  -5.0256667 -37.2954063 -24.3076324  -5.3193851 -36.9181366 -25.6803265
   5.4036899  30.6708927 -29.9710159   5.4282789  29.9904308 -30.6237316
   5.6363616  30.1653862 -29.1786900  -4.2539144 -29.3905106  -5.0093350
  -4.5310869 -30.3512745  -4.8929353  -3.9945204 -29.3934212  -5.9417634
  -0.1670418  -5.6453643 -21.3614407  -0.6474643  -5.0217700 -21.9518242
   0.4572004  -5.0363512 -20.9071102   6.7430773 -37.0467720 -20.6594143
   7.6074338 -37.1638451 -20.2054043   6.2465663 -36.6532021 -19.8465481
  29.0588017   5.5116887 -14.2719135  28.5068436   5.3801746 -15.0985546
  28.4634132   4.9889183 -13.6476011 -34.5990295 -13.5513887 -21.3340855
 -34.7114487 -12.8600073 -22.0678024 -33.7176552 -13.3209877 -21.0618286
 -40.5541420  -9.2045774  10.2137337 -40.2739372  -8.9139528   9.3540983
 -41.3747368  -9.6481590  10.0926571  20.1400566   8.3232279 -24.0277348
  20.5308704   7.6999493 -24.7213211  19.4149551   7.6996026 -23.7048512
  35.2097244  13.6099758  21.1276302  36.0569534  13.2289953  20.7656956
  35.6119690  14.3185101  21.6468105 -22.9976673  22.8363056  28.6861820
 -22.8395252  23.7666206  29.0256348 -23.9420643  22.7921963  28.6846161
 -27.6800270   6.5337720 -13.4935265 -27.8478374   5.9585772 -12.6787806
 -27.4880219   5.8276858 -14.1705494  -4.6923184 -36.7341118 -28.9400024
  -5.2922721 -37.0072784 -29.6785088  -4.8871899 -35.8909035 -28.7104778
  42.1822662 -30.6307716  -0.8814459  42.4695358 -31.1305790  -1.6323625
  41.9302673 -31.3475704  -0.2631274  16.6392403  25.4944019 -25.1101685
  17.1647205  26.2629452 -24.9068451  16.8788242  25.2300911 -25.9934807
  31.4342670   3.8375795   6.6481490  30.5677948   3.8416104   6.2835751
  31.3224182   3.3982532   7.5176945 -13.7707205   5.6110601  32.5723572
 -13.8986435   4.8692307  31.9655476 -12.8132887   5.4832411  32.8044128
  23.9181271   8.8284082 -31.5269661  23.1252174   8.7308235 -32.1320000
  23.5021992   9.3562593 -30.8223972 -39.6061630  29.7970257  -0.2906845
 -38.7254181  30.1774120  -0.6026906 -40.2051773  30.1311054  -1.0272679
  42.4216919 -22.7277317  21.4452095  43.0628586 -23.4657764  21.4001179
  41.6348724 -23.2519798  21.7701206  22.3324947  13.7675037 -36.1895523
  21.9057426  13.0150108 -35.7256927  22.4820137  14.3139086 -35.3473969
   4.1985197 -25.0788383  30.8950882   4.1925869 -24.3322201  30.2813282
   4.9726801 -24.9248390  31.4464836   9.6330814  -4.8855295 -30.9309540
  10.3495693  -4.2540560 -30.8415585   8.8970280  -4.3496842 -30.4740658
  31.1912270  28.5381660   0.4086278  31.7980118  28.5129910  -0.3182222
  31.7122669  28.7218494   1.2468889   9.9565916   0.5022895 -30.9788437
  10.6516094   0.8359595 -31.5482407  10.0510807   1.1097343 -30.2269115
 -23.3726254   6.6950359 -31.5155830 -24.1579475   6.2352133 -31.8341312
 -23.4953499   6.6741648 -30.5622902  13.0036983  23.1936417   7.7743363
  13.7201872  23.5075302   8.3699455  12.1937551  23.4456654   8.2040901
 -30.7582436 -10.4859791  -2.2606509 -30.0767174 -11.2226200  -2.0161307
 -30.9364185 -10.1718426  -1.3619518   0.5509912 -19.0963573 -15.7288303
   0.9241931 -19.2886257 -16.5991955   0.8909288 -19.9058037 -15.2114754
  -5.7088976 -14.5106812  27.8402615  -6.4791875 -13.9992123  27.8356819
  -5.7888536 -15.1179905  27.0830135 -19.6207409   2.5017595 -25.3367977
 -20.0973663   2.1795588 -24.5046463 -19.7599010   3.4602897 -25.2753868
 -19.8065300  28.2836151 -14.2584982 -19.2946510  27.4621315 -14.2297888
 -20.4249496  28.1428909 -13.5334845 -18.5185490  20.6680355 -27.4667587
 -17.9130135  19.8687782 -27.5843430 -17.8300438  21.3413811 -27.6434593
 -43.0927010  -8.0817318 -13.3567514 -43.6396065  -7.5488868 -13.9331141
 -42.8017693  -8.8323460 -13.9398651 -11.8842125 -45.1992188 -17.2951450
 -11.5736380 -45.4160538 -16.3612614 -12.7974644 -45.3464279 -17.2288189
  36.2988434 -21.9918785 -28.0567360  35.9156532 -21.0314789 -28.2004318
  36.9135857 -22.0102520 -28.8407459 -21.3702087 -26.1727734 -27.9421597
 -20.8419495 -25.4530411 -28.3118534 -21.8101387 -25.7179623 -27.1893406
  13.2592325  21.8569717  22.9736996  12.9500113  22.5720444  23.5396900
  14.0421305  22.2234879  22.5235958 -29.7224445  -2.9198873  -2.8126559
 -30.5759888  -2.4137006  -2.7398491 -29.2625446  -2.4702902  -2.0930655
  25.9366856 -28.9125309  22.8907108  26.4006767 -29.2725811  22.1324654
  25.4010830 -28.2048454  22.5213814  35.6644363  26.6374493 -11.3255081
  34.7009392  26.5553837 -11.2040882  35.6510735  26.9172096 -12.3348866
   8.5612221  44.6609001  23.1344357   7.9532051  45.4568939  23.0513115
   9.0261068  44.9041100  23.9805870 -20.8411160  23.7720680 -37.2417831
 -19.9145031  23.5583839 -37.5225906 -20.6729145  23.7785568 -36.2585373
 -29.5884094  -6.9285111  31.7304211 -28.6980190  -6.9991770  32.1493759
 -29.9379196  -6.3014159  32.4195213 -12.9987202  11.9745750  48.4356270
 -13.6937990  12.6643429  48.4470329 -13.2912397  11.4334602  47.6958580
  -6.4937472 -40.9547234 -18.2563629  -6.4091034 -40.6512985 -19.1455250
  -6.6318669 -41.8966141 -18.3302898  10.8320112  16.1138878 -25.4577465
  10.0514927  15.6121912 -25.1935959  10.9361868  16.5466213 -24.5352650
  23.1721268  10.9299316  11.8232708  22.4272022  10.4692688  12.2488861
  23.8715267  10.8469963  12.4777260 -16.1342773  18.8274307 -38.8334846
 -15.7454481  19.7145901 -38.9217148 -16.8341961  18.8569088 -39.5408173
 -17.9275742   2.3292346   8.0105362 -17.2976627   2.0472343   7.2979460
 -18.0799217   1.4624584   8.4537401  37.9173355  17.4774075 -17.9077339
  37.7739334  16.5110970 -18.1511440  37.0397491  17.7881737 -17.8888798
 -42.7941551  27.6047077  20.3611145 -42.2412720  27.7239361  21.0896988
 -43.6711464  27.9650936  20.6004105  -5.4694033  26.6658001   2.8674092
  -5.2025409  26.9857826   3.7795939  -6.3109231  27.0912285   2.7947462
   8.9736824 -41.5986366  -3.1851945   9.6292381 -42.3289757  -3.1936512
   9.5473928 -40.9408264  -3.6097906 -12.2577496   1.1978297 -38.0507698
 -12.9896297   1.5545646 -38.6171227 -12.1946783   0.3320712 -38.5215759
 -25.1443996  -1.7598150  15.8004255 -26.1336727  -1.5851209  15.8565836
 -24.8178997  -0.9425774  15.3997316   9.8339663  -4.8581729  25.7046375
  10.2545462  -4.7697001  26.6099834  10.6635389  -4.9537663  25.1294193
 -13.4947424 -27.7083778   7.9302621 -13.4937191 -26.9615517   7.2343307
 -13.9391985 -28.4195938   7.3998208 -16.5502567 -12.8209572  31.2531090
 -17.4821548 -12.7336655  31.5437012 -16.4052773 -13.7542372  31.4087029
  44.0453224 -15.0848713  21.4581032  44.6792755 -15.0519800  22.2099876
  43.2687683 -15.3887320  21.9275494   5.8727455   1.4359468   6.9386706
   6.1444521   0.5946780   7.4488330   4.9575305   1.5443678   7.3895879
   9.6874256  29.6250019  -9.2609425   9.1134453  28.8290005  -9.1439333
   9.3789425  29.8033962 -10.2402601 -10.2379637 -38.1965141  12.4025974
 -11.0081816 -38.3544159  11.8708353 -10.1353340 -39.0621567  12.9097347
   7.3229246 -18.2779846 -44.3024368   6.5092254 -17.8223915 -44.0328484
   7.2441254 -19.0623817 -43.7432327 -20.5685978   6.5615358   7.4954762
 -21.4849701   6.7398272   7.2631373 -20.1681576   7.2363029   6.9491706
  18.9000130 -19.8997383   0.3693336  19.6532059 -19.4949780   0.8894934
  18.2619781 -20.0417595   1.0548066 -12.3758736  -4.0858083 -28.1413803
 -12.3975382  -4.5376663 -29.0093269 -13.2863436  -3.7547798 -28.0470276
   0.7233568  21.5990238 -21.7654819   0.5583158  22.3878784 -22.3577080
   1.6246384  21.3806000 -22.0546055 -26.8572216 -22.5191231 -14.9236641
 -27.0527782 -23.4779415 -15.0949621 -26.1032887 -22.6768341 -14.3449745
 -21.1447926  10.0330467 -15.7580948 -21.5457592  10.7035275 -15.2496529
 -20.4174194   9.7337351 -15.1589899  20.0559521   2.2190092   5.9577651
  20.0751286   2.9493306   6.6597810  19.0996265   1.9054708   6.1770935
 -30.4924583  28.2421169  23.0304470 -29.6531601  28.4357166  23.5286636
 -30.6728725  29.2220154  22.8355312  -1.8641365  37.1621208 -25.0742493
  -0.9454813  37.1803513 -25.3907490  -1.7442930  37.0163765 -24.1026745
  29.1075172  15.5134592  29.8864002  29.4044819  14.9644947  30.6434765
  29.9415817  15.3985472  29.3056049  19.7378387 -26.7929287  -6.9741421
  19.0778942 -26.3534088  -7.5990577  20.2532749 -26.0351295  -6.6780787
   0.9959986  11.7606268 -25.8126526   1.8372133  11.9997559 -26.2313671
   0.5480127  12.6376171 -25.7549381 -31.8242340 -16.6050816 -17.2707500
 -31.5299950 -17.0257359 -16.4554596 -30.9714737 -16.1966438 -17.6168041
  19.0751820 -16.8088531 -19.2467709  19.4818554 -16.9783974 -20.1261120
  18.2861710 -16.2939644 -19.4787331 -16.4966450 -39.0065079  -0.9127132
 -17.1463585 -38.8616943  -0.1850407 -16.3734264 -38.1285782  -1.2863805
  14.6986513 -32.7874680  22.7523060  14.6449804 -32.2858963  23.6115017
  13.7420273 -32.9366570  22.6070728   6.1324744 -24.7619667  32.5844116
   6.5136566 -25.6577892  32.8372192   6.1710038 -24.3308334  33.4723816
 -32.0580101 -12.7777243 -20.1067333 -31.1448421 -12.8769398 -19.8769550
 -32.5308533 -12.9950142 -19.2782326  32.7521095  -6.0464139  42.6966171
  32.4843445  -6.6869879  42.0447693  33.0029030  -5.2808828  42.1850777
  -4.6667490 -26.4863586  10.1759586  -4.4380774 -25.9346733   9.4547014
  -5.4107561 -27.0092659   9.7837486  24.8124962  16.8889084  20.7104378
  24.0389633  17.3466778  20.3802395  24.9962997  17.3449345  21.5339775
  -9.0351200   2.9059882  -2.7281587  -8.5554228   2.9139380  -3.5977552
  -9.4192810   1.9843233  -2.8150308  15.8723536  40.5302505  23.5144424
  16.3643780  41.0359383  22.8880157  15.1891270  41.1865921  23.7699757
   5.4849749  42.9029198   9.5919952   6.1198077  43.6603851   9.6037302
   5.9760728  42.2711945   9.0770559 -29.3161907 -13.9723539 -20.7112217
 -28.4195175 -13.6371613 -20.5733681 -29.6883087 -13.3859491 -21.4042835
  16.3640938  32.4223480 -16.8668575  16.5266609  32.3928757 -17.8048744
  15.6945686  33.1434822 -16.7960911  22.6209354   0.2827605 -24.9361553
  22.4940891  -0.5600172 -24.5781937  23.4372253   0.5566144 -24.5205650
 -18.0839672  40.2058945  -8.2214298 -17.3657360  40.7629089  -7.8258319
 -18.3528004  39.6703224  -7.4848170  39.0785904  29.7792816 -10.3316002
  39.5596237  30.6058292 -10.1511726  39.3501244  29.5882492 -11.2555962
 -21.8057804 -25.5290108 -17.9418659 -21.2728424 -25.3941288 -17.1261768
 -21.1657810 -25.0429611 -18.5894489 -28.0427551   0.5175689 -32.9934654
 -27.1231880   0.7734854 -33.2295036 -28.1926479  -0.1625249 -33.6409721
 -30.7962284  -6.9967380  34.3525467 -30.9026165  -6.5469675  35.2218590
 -31.1869106  -7.8537297  34.5655861  32.4467468 -25.5019150  20.1858044
  31.5419788 -25.6857567  19.8123817  32.3341980 -24.5218468  20.2892246
  15.0263510  18.4292431  -0.8543738  14.7451668  18.9213352  -0.0859334
  15.0990410  17.5237198  -0.5007485 -28.2076359  -6.5185428  -4.3427143
 -29.0185986  -5.9777117  -4.6293540 -28.7412510  -7.3989639  -4.2615309
 -41.3003006  27.5532875  -8.7502489 -41.5278740  26.7503033  -8.1867313
 -40.4895020  27.2468510  -9.1806288  28.0858135  -8.8230753 -32.3973579
  28.8247623  -8.2627916 -32.7734795  28.2539577  -8.6799545 -31.4360123
  28.3963871  26.6855640  11.0415745  29.3654404  26.5125504  11.0147562
  28.1057110  26.3267670  10.1585054  18.3640633 -10.3718748  39.3697777
  18.0012264 -10.5595770  40.2572212  17.6004391 -10.4071712  38.8073349
 -21.4945278  21.1809826 -40.7648735 -21.9458466  20.7539177 -41.5043793
 -22.1770210  21.5523701 -40.2094879 -15.1470804 -18.0982666  -5.3717170
 -14.6363583 -17.7425518  -6.1053271 -14.6337271 -17.7367554  -4.6436634
  13.8816509  19.5185280   1.4868091  13.3126783  19.7015285   2.2375398
  14.2023039  18.6004105   1.6598417 -39.8931656 -27.0561504  -1.7250614
 -40.1395798 -27.5465775  -2.4948485 -39.0999641 -27.5263443  -1.3886462
  26.1571980 -30.1945744  16.4222183  25.6358509 -29.3689346  16.6411343
  27.0896091 -29.8436966  16.3884506   1.4375960  17.1702881  18.5861282
   1.3290253  18.1291485  18.4461937   2.2661207  17.1162281  19.0410900
   1.6414279 -11.0163841  34.2793388   1.0213499 -11.0909557  33.5024185
   1.0816880 -11.4751501  34.9761314  -6.7995491 -41.1384964  10.6924057
  -6.6501970 -40.2042656  11.0092945  -7.0858898 -41.5213547  11.5659695
  20.1002178  27.8242702   4.0908089  20.3214130  27.0320015   4.5535607
  20.6323700  28.5042057   4.4407706 -11.6627293  -0.7221680 -25.3526821
 -12.6667690  -0.8799932 -25.5811958 -11.5426750   0.0594586 -25.9532738
 -17.7300758  16.9309521  37.7661934 -16.8486919  17.0590000  37.2775497
 -18.1597137  17.7660904  37.5244484  12.6133642  -3.6405694   6.8457685
  12.9467878  -2.8320928   6.4101548  11.7778893  -3.2854023   7.2113209
 -15.2222004 -27.7081680  14.1154366 -15.0416517 -28.2864704  13.4205866
 -16.1768456 -28.0177803  14.3311348  25.1221180  33.0120926   0.6676692
  25.2868652  32.3087616  -0.0107515  25.7539139  32.7169762   1.3429310
  -1.3903744 -26.3970261  25.2113209  -0.8778223 -27.1476860  24.9699516
  -2.2516589 -26.7371311  25.5427971  -4.5969553  40.6325645 -20.9198055
  -4.5659499  41.0103951 -19.9944153  -5.2242279  39.8780518 -20.6878586
 -39.6054764  19.5753708  -6.3525562 -40.2487602  18.9991245  -6.8408523
 -39.3224640  20.0933018  -7.1197271 -27.5603371   3.9316216  -6.0134172
 -28.4371262   4.3636479  -5.7320724 -27.1716976   4.5945983  -6.5561724
 -38.3288193  -5.3508935  14.2976646 -38.1228790  -4.4018445  14.3511219
 -39.1290321  -5.3620262  14.9395323   8.6329756  11.8014679  41.7727776
   8.4280863  12.7337456  41.9780197   9.5278053  11.9320145  41.3314476
 -18.7548218  21.2668934 -14.0234842 -18.4057102  22.0073967 -14.5966377
 -17.9746513  21.0964108 -13.5125628 -28.9088688   2.4637690  18.2861061
 -28.2240944   1.9907136  18.8107185 -29.6377411   1.8421062  18.2799168
  14.6768312 -21.5250168  45.9889526  14.7764158 -20.5374222  45.8641777
  15.0650492 -21.8291855  45.1387558  19.4197178  -1.0577713  13.1229486
  20.4073620  -1.2562557  13.0220022  19.1357403  -1.3000329  12.1777258
   1.0723721  11.8363190   4.5302520   0.1665745  12.1169319   4.7691512
   1.2428403  12.3598175   3.7091923 -23.9781055  14.8777924 -35.6129684
 -23.1945343  15.2492342 -35.9989433 -23.5992603  14.0687170 -35.2207451
 -11.0316458 -22.0131798  25.8002853 -11.8042135 -21.9751263  25.1428089
 -11.3025408 -22.8894081  26.1932621  25.5290928 -26.8299351  12.2317638
  26.1112652 -26.2873096  12.8161831  25.8054981 -27.7479477  12.4798460
  13.8490076 -21.7568302 -45.6264000  13.7058582 -21.5157833 -44.6438942
  14.5873995 -22.3827496 -45.4984322   4.1471381 -35.4363823  15.0991087
   3.1912823 -35.3158722  14.7939014   3.9916322 -35.5783463  16.0226002
   7.2183328  -6.8589830  39.8382492   7.3850393  -6.3737211  38.9854431
   8.0463095  -6.7095151  40.3074455   5.7731729 -17.8086948  39.4811325
   5.6849771 -18.5537872  40.1500359   5.9641433 -18.4359703  38.7003670
  27.4789238  31.2070103 -19.0435677  26.9188557  31.6845284 -19.6933537
  26.9961567  30.3462048 -19.1087379  21.2708187 -18.0492611  -5.9827566
  21.0491772 -17.1118622  -6.0940647  21.9243011 -18.0524406  -5.2500634
  23.9224606   6.8454113  39.8350983  23.9674263   7.5268674  39.0868492
  24.6395187   6.2353034  39.4481430  -9.0241671  15.7888899  43.3738937
  -9.2293692  15.4781284  44.3025093  -8.1842527  16.2191296  43.5340271
  18.7958755  -8.5446539 -29.8113880  19.5964794  -7.9380164 -29.7900372
  19.2565384  -9.3930368 -29.5926704 -39.6463547  -5.4999008 -16.2557278
 -40.1385078  -4.6331835 -16.3315792 -40.0850639  -6.0105295 -16.8912640
   1.2018750 -43.7979012   2.8474653   0.5954114 -44.5577965   3.0196671
   0.5505686 -43.0616150   3.0694697 -44.3054008  -2.4447219 -21.8487282
 -43.7317619  -1.7806574 -21.4198742 -45.2162170  -2.1196728 -21.6284771
  24.9843502   6.8363123 -18.0499420  24.5411491   7.3624201 -18.7700367
  24.3828487   6.0742335 -18.0680561 -19.9725437   6.2328038 -46.0239754
 -19.5099297   6.3425155 -45.1888351 -20.6477928   6.9209852 -45.8938103
  19.5757179 -38.2736969  -9.3666945  18.9542980 -37.7871552  -8.7776947
  18.9732170 -39.0337868  -9.6650887  27.1328144 -10.4608793  42.2460022
  26.3600082  -9.9140291  42.4982567  26.7091484 -10.9155865  41.4533653
  17.2706909 -29.6174927 -12.5646477  16.4219170 -30.0176544 -12.4376898
  17.2772827 -29.5572567 -13.5418892  12.3286781   7.8214946  23.6037712
  11.6311636   8.4699059  23.6344013  11.9632158   7.1704845  22.9653740
  23.7649078 -34.9220390  29.6504364  23.6541328 -34.6408882  30.6038952
  24.7654457 -35.0103188  29.6510086  10.9345570  12.0283604  26.0967674
  10.9003220  11.0572329  26.0647640  10.6551390  12.1797504  27.0089149
  18.5781803  17.8496094  27.4183235  19.3106499  17.3703403  26.9702015
  18.3886356  18.4815235  26.6904812 -26.2566414 -35.0155106  17.9563961
 -25.7202454 -34.6337852  17.2043533 -25.5681877 -35.4052773  18.4973183
   8.2179699 -34.8033180 -23.4267845   7.3380442 -34.8617172 -22.9869137
   8.0402594 -34.1523361 -24.1616535 -41.0071220   5.4865541  33.4835472
 -41.0954094   5.8981533  32.6634521 -41.5575027   4.7346382  33.5350494
   7.5270977  45.4390068  10.0705090   7.6277032  46.2828102  10.6287212
   8.4283810  45.0794296  10.2033167 -29.0744095  -5.4881878  -8.4262533
 -29.1216507  -6.0457969  -9.2384768 -29.5734386  -6.0584302  -7.7755060
 -17.0647621 -11.7299042 -17.4978447 -17.5833645 -11.6847420 -16.5828876
 -16.2441387 -11.2823410 -17.1425419  11.4885111 -21.1369686   9.0601873
  11.8361206 -21.8436699   8.4569473  12.2573957 -20.7007675   9.4316015
 -39.2378044 -28.6220417  -9.0456800 -39.7677383 -27.8011894  -9.3965178
 -38.3939400 -28.4018631  -9.5007973  39.3577118  30.9445801 -16.3709354
  38.6831360  30.9240723 -17.0528297  39.7083626  30.0784893 -16.4729748
 -25.3327255   7.5433187 -43.7543602 -24.8463898   8.0590858 -44.4872856
 -26.0728245   8.1111794 -43.6762238  38.2278214   2.5050447  37.4384384
  37.4000092   1.9599057  37.3944168  37.9738503   3.2735915  36.8692589
   0.2764815  27.7043362 -27.5765629   0.3775086  27.0365562 -28.2737026
  -0.3442181  27.1985931 -27.0163422   2.0452700  -1.0010792 -51.5980148
   1.8035982  -0.0615971 -51.3978577   1.5520316  -1.4961733 -50.9319267
 -16.4114685  24.5324535 -29.1624928 -16.6617870  24.3057423 -30.0800152
 -15.8394299  25.3222370 -29.4041367 -33.7477646  28.3807869  -4.4330773
 -34.2381897  27.5970478  -4.5581613 -34.2690430  28.8546219  -3.7615793
  28.0607548  32.8517189  -2.4194303  28.3264980  32.8244324  -3.3194880
  27.0881920  32.7493668  -2.5533450 -21.8123608   9.0566568  35.6186600
 -20.9048538   8.6565351  35.7931557 -21.6294098   9.8728180  35.1111145
   1.2184186   4.8976350  42.0519753   1.8693489   5.6254115  41.9223557
   1.2394156   4.8352718  43.0560570 -39.9648933 -16.4659653  -9.6946840
 -39.6171570 -16.8213997 -10.4884253 -40.3098602 -15.5812645  -9.9694910
 -17.2098770  25.0921135  12.3229399 -16.2761250  24.9568424  12.0502195
 -17.0771828  25.5529461  13.1222668 -20.4602356 -31.4676609   4.2791615
 -19.4430790 -31.3377781   4.3304119 -20.7031155 -30.5697308   4.1216660
 -30.9999313  27.7663460 -21.1460896 -31.9008446  27.8377609 -21.5450249
 -31.0767841  26.9767914 -20.5714092   9.4149494 -25.3186207  25.1309147
   8.9537344 -25.7828102  24.4006138   8.6602573 -24.9036026  25.6114979
 -20.3944588 -21.9905434  -9.2631855 -20.5777340 -22.2363987  -8.3291388
 -21.3437767 -21.8372784  -9.5246878   7.4207816 -29.0311813  -6.7903938
   7.2789302 -28.2129631  -6.2603579   6.5706201 -29.3038769  -7.1189671
   6.5496521  40.8603706  -5.6111293   6.7539682  40.2023125  -4.9065595
   6.5116282  41.6515160  -5.0872164  -0.8025261  11.5357494  10.0362930
  -1.4094626  10.9598827  10.4922752  -0.2098404  10.8879175   9.6108837
 -40.2405586   7.8729768 -14.1705332 -40.4543304   7.2813826 -14.9320812
 -39.6753960   7.1809735 -13.6889086  18.6143570  12.4912243 -30.4286747
  19.1208305  12.1914997 -29.6311893  19.2920628  12.3905611 -31.1477051
  -2.9474347   1.2736933  -9.1130323  -2.6636267   2.2041616  -9.1518564
  -3.9183986   1.3912194  -9.0647659 -38.1162834  11.5934095   9.9390898
 -37.3454552  12.2045288   9.9130278 -38.4438057  11.8396673  10.8391428
 -42.0022964  11.4155741  12.2887659 -41.8749924  12.3689785  12.3434992
 -42.5594139  11.2988968  13.1108217 -18.3634148 -28.1339397  -4.7074466
 -18.3791199 -27.2766685  -5.1317830 -17.7556801 -27.9844170  -3.9414201
 -12.4012299  10.2704449  41.0939598 -13.1136837  10.9068508  41.4310951
 -12.0571585  10.9477959  40.3837471 -21.1625233 -18.0611858 -18.4475288
 -21.5290546 -18.2665710 -17.5775414 -21.6035080 -17.1434021 -18.6525459
  17.8870773  40.8451500  11.9012375  17.6787891  41.5231018  12.6191902
  18.6837082  40.4659119  12.3664389  20.5313797 -11.5201921  19.7292843
  20.2540150 -11.3304939  20.6487808  20.3807983 -12.5218115  19.7248154
  18.5001144  13.7560139  26.3353252  18.8709202  14.6872730  26.2402115
  19.0414886  13.3606415  25.5758400  40.9717178  17.9924870  -4.9075079
  40.3867302  18.4755440  -4.2591143  40.5668297  17.1346073  -4.9261270
 -28.3260155 -33.3455429 -11.9891329 -27.5640411 -33.7961426 -12.5120173
 -27.8362389 -33.1214256 -11.1475096 -10.8924894  18.0228081 -41.3129082
 -10.0017443  17.6172752 -41.1896820 -11.4780998  17.2720451 -41.1515465
  26.9523239  -2.3382564  23.6618996  27.8370228  -2.7236631  23.8540535
  26.7803307  -1.9350402  24.5550289  28.9286480  13.6803131 -23.6273518
  28.4333248  14.5027847 -23.5662937  28.2321281  13.0012770 -23.3693752
  28.8253498 -27.1328239   1.3163524  29.3960438 -26.7002201   0.6159061
  27.9583855 -27.2265987   0.9265695   5.5554223   4.5136557 -15.5308247
   5.9392972   5.0959516 -14.8376017   5.2061458   3.8201993 -14.9595661
 -27.4242725   3.7605011  11.6684046 -28.0079479   3.0735443  12.0221472
 -28.0159550   4.5832038  11.8641453  11.5403481 -26.7599430 -41.9544640
  11.3830338 -26.7254047 -42.8989105  12.4911032 -26.6276379 -41.8526917
  -3.9984944  -7.2139983  39.0974045  -4.0855622  -8.1381187  38.9666252
  -3.6499507  -7.1647453  39.9956932   3.5550857  15.9752388  38.0068932
   4.3570089  15.4396276  37.7155266   4.0158978  16.8405972  38.2342720
  35.2515488 -22.1160698 -14.9922962  34.7393379 -22.8171654 -15.4897013
  35.9664726 -22.7240028 -14.5852070  28.3245735  -3.3529787  44.5435638
  28.2430744  -4.1489344  43.9912453  28.9213467  -2.8237383  43.9516716
 -26.7979984   0.9504880  -1.7151376 -26.6307049   0.0131873  -1.5317216
 -27.4226189   0.8219252  -2.4860253  -0.3189361  10.7502527  39.1002808
   0.3806921  10.9980888  39.6925888   0.1807827  10.3530054  38.4014626
 -15.1442013 -44.9902725   3.5630658 -14.3568802 -44.6241684   4.0505147
 -15.2718658 -44.2726669   2.9167237  30.4045372  31.3799934  17.0549736
  29.6712170  31.2082691  16.4193668  30.5779648  32.3350716  16.8979931
 -12.8057194  12.8192892  22.8196545 -12.4160604  12.0919437  22.1805782
 -12.2983398  12.7301855  23.5835762 -12.5478611   5.8512096  27.7803860
 -11.6447411   5.9503860  27.3988838 -12.7933950   6.8026772  27.9001427
  38.2689590 -16.3809738  -5.4229345  38.6907196 -17.2644176  -5.4824018
  37.9541779 -16.2876987  -6.3386335  25.0192032 -35.0501060  -8.7606354
  25.9156570 -34.8605232  -9.0537205  24.9094563 -34.4261742  -8.0107212
  -0.9751549   1.9836351 -40.0151787  -1.4064919   1.4112263 -40.7125816
  -0.0052979   1.6805387 -40.2096977 -25.9247799 -36.7926712  21.8356247
 -25.4988937 -37.6475601  21.7556343 -25.4831009 -36.3427505  21.0738678
   7.4690719  31.5234013  26.6295891   7.5330582  31.9372120  27.5091305
   6.7264585  32.0975304  26.2500515 -38.4126663  -4.2611246  -9.9144497
 -38.6728516  -3.7956688  -9.0449982 -37.7316399  -4.8391738  -9.5224457
 -25.8552094 -42.3315506  12.1521683 -26.8554916 -42.1134109  12.0422544
 -25.8066559 -41.9882240  13.1302071   4.2754278 -43.6697807 -27.7979355
   4.6715183 -44.4935532 -27.8607388   3.6523671 -43.5541611 -28.5189667
  37.4666748  28.9102478   4.1822276  37.0416489  29.6346779   4.6701455
  37.2227325  28.1844082   4.7979341  42.6392021  22.1882782  -7.9569187
  41.7420273  22.6029816  -7.8551412  42.5674248  21.3636189  -7.4281764
  18.6503124  -2.0345852  10.5966196  17.7826538  -2.1075549  10.1333771
  19.0335045  -2.8901935  10.2214813  -5.0572252  40.5985909  11.4070015
  -4.1837249  40.8438797  10.9450035  -5.3982630  39.9736633  10.7304153
  29.6335564  -6.1142244   8.2407713  30.1645718  -6.0156851   7.4062862
  29.9108257  -5.3220315   8.7143707  -1.1540694  17.9758892 -13.5741301
  -1.0912095  18.7352104 -14.1935158  -1.4872956  18.5375175 -12.7938986
   8.0498056  45.1898155  -3.2327750   8.1906805  44.8184929  -2.3128512
   8.9683876  45.0196648  -3.5874674 -20.3829441   1.5002663 -43.0173607
 -21.1119499   1.8291048 -43.5392418 -20.0303802   2.2889414 -42.5474129
 -42.3664131  14.5321941  25.1130180 -41.5277023  14.2226744  25.4842091
 -42.0888519  15.0279398  24.3742580 -33.5900421  26.1433048  27.5759220
 -34.3856316  26.7096825  27.6616173 -33.3192215  26.2649727  26.6569576
  25.4181843 -10.7316971 -22.4588470  26.2593346 -10.8282824 -22.0231705
  25.2802277  -9.8047152 -22.4035244   5.5430474  12.9527178  13.6061306
   5.5563841  13.5107145  12.8114185   4.9920363  13.5171251  14.2066860
  -4.9933825  -2.2886801  16.7482853  -5.3211961  -1.4564255  16.3610058
  -4.1784186  -2.3594666  16.2893658  -3.0708363  43.5825958   9.3933353
  -2.9284272  44.4988174   9.2963190  -3.8189125  43.5672531  10.0512810
  10.5089369 -28.7614098   1.0157386  10.3697309 -27.9137897   1.4299014
  10.8593988 -29.2408600   1.8409382  -7.2607989  13.1151838  12.7068863
  -6.9355206  12.5283489  12.0342274  -7.0210419  13.9945869  12.3175116
  17.9392891  28.6199207  26.9714222  18.6418514  29.2548790  26.7679596
  17.4034386  29.1122150  27.6581745 -38.3508911   8.6017694   9.6192760
 -39.3437042   8.7026243   9.7942457 -38.1524124   9.5457716   9.8281183
  -8.6014748 -46.5341263  -9.3981037  -8.2122164 -45.6039467  -9.4170055
  -8.7584267 -46.6428986 -10.3436270 -12.3852053  14.6263885  18.4663544
 -11.4906988  14.7580385  18.9364891 -11.9777966  14.4036503  17.5656719
   1.4687529 -10.4882507  15.0305424   0.8425046 -11.1061497  14.6479845
   0.8758973  -9.8999157  15.5539894 -23.5642262  37.6913834   9.1566401
 -23.3026085  38.5456734   9.4771061 -23.3481579  37.1046028   9.9193449
 -28.2318153   7.1705880 -41.6788940 -29.1196480   7.6342139 -41.4124031
 -27.8256454   8.0067444 -42.1075821  19.0289650  39.3637543  18.3364525
  19.1016502  40.2984619  18.5470295  19.8763580  39.1627922  17.8232193
  -6.3300934  15.9313231  -4.6661434  -6.2261801  15.0234737  -4.4951835
  -6.0452743  16.3994694  -3.8780098   7.8122473 -12.1459188  12.5734072
   8.3003759 -11.3504753  12.8978291   6.9616647 -11.7966776  12.5013227
  24.3843384 -15.6455879  17.9078274  23.6796913 -16.2111073  17.4893551
  24.0651836 -15.6298628  18.8228760 -25.6459522 -19.4081249  17.3267403
 -25.2125607 -18.5990067  17.6775227 -25.9375992 -19.8700256  18.1869411
   0.3828680   4.5449281 -39.2478790  -0.2026485   5.2028060 -38.8290443
  -0.1631114   4.1513515 -39.9678116  19.9043598  27.1387424   1.2384735
  19.7180882  27.4902496   2.1432626  20.8313904  26.8093758   1.4116800
  -3.4948595  16.6646938   7.5424409  -3.4898837  15.7641449   7.3279986
  -3.4773738  16.6548252   8.5018396 -11.5335064   2.2994125  19.2685604
 -11.7221088   1.4288707  19.5299511 -11.4200659   2.6900735  20.2152653
  11.3322678  35.7153206 -16.1975365  11.2783461  36.6498947 -16.5510044
  12.2891703  35.5704155 -16.1798744  33.6117897  -7.3444972 -11.1738081
  33.9528389  -6.7586565 -10.4772854  33.3241386  -6.7746062 -11.8385878
  31.6424332  -7.0193515 -26.5696869  32.4395027  -6.4709163 -26.5534725
  32.0397491  -7.9121017 -26.4885845  10.3541203 -16.4153900 -11.1931829
   9.9499350 -16.1456547 -12.0567532  11.0722694 -15.7566395 -11.1327448
 -25.0796547 -20.6955357  -1.9847082 -24.9401627 -20.9339352  -1.0082289
 -24.2517815 -20.2298031  -2.1491749  43.5168190 -21.4244328  -1.7586377
  44.1374054 -21.1494370  -1.0507474  43.9964638 -22.1466923  -2.2206864
  27.5072250 -29.0037231  -8.4963646  27.8567429 -28.1475639  -8.1886349
  28.1316299 -29.2640743  -9.2148848 -33.7424164  31.8965702 -11.6353683
 -34.2161827  32.4064102 -12.3307962 -33.6410294  32.5832672 -10.9519367
  -7.8952155  40.0262909   6.8829556  -7.1911492  39.3519745   6.8611784
  -8.1755371  40.0488930   5.8987107  -7.3019671  11.3904743 -15.9248219
  -6.2826824  11.5465317 -15.8760777  -7.3251848  10.7843075 -16.7358341
   3.5916538  -3.7231596 -47.2853851   3.9808927  -4.4535184 -47.7808876
   4.3574848  -3.0989308 -47.3241234 -11.2623510   8.9957905  24.4592247
 -11.9530067   8.7872581  23.7887440 -11.0664911   9.8989706  24.3096981
  22.0715599  11.4610577  22.4355221  22.9578476  11.1709738  22.1737366
  22.3014145  12.3784447  22.7662868  14.9653416  -2.1837761 -21.8656940
  14.9321995  -3.1643209 -21.7614594  13.9584599  -2.0517645 -21.7265644
  23.8077793 -38.7733116   2.2126467  23.7159023 -38.3306694   3.0292077
  22.8593655 -38.6959534   1.8953266   8.3286858 -22.1644764  40.6236076
   8.8405342 -21.9985142  41.4328575   8.4451838 -21.2987080  40.2027893
 -18.5647125 -28.7641678 -26.4648685 -18.7350521 -28.2764664 -27.3081093
 -18.1362152 -29.5596180 -26.7408295  23.8211460   2.0706813  20.5354919
  24.1640358   2.8611937  20.0184612  24.6484261   1.6744585  20.8481331
  -6.3478136 -22.2198524  16.5660648  -6.5867457 -22.7091751  15.7650661
  -6.7984152 -21.3673172  16.3387260 -21.8661842 -36.2661705 -13.0777473
 -21.6873798 -36.6229630 -13.9848738 -21.0048294 -36.4235535 -12.6693926
  16.4066830  11.6997824  24.5410614  16.1877480  12.5496235  24.1706409
  16.4384899  11.1092567  23.8005657 -27.2867374  19.8791676  20.4691734
 -26.8323288  19.8858871  21.3113651 -26.7524414  20.5061607  19.9412823
   9.3451939  -1.4194582  11.4957943   9.3191843  -0.4145260  11.3355436
   9.1054373  -1.3715711  12.4726944 -37.8528976   1.4959732 -16.4427700
 -37.2276573   0.8333640 -16.0146217 -38.2783127   1.8398346 -15.6582670
 -29.2716122 -19.8038902   9.6398373 -29.9006977 -19.1265182   9.9483976
 -29.7875900 -20.2324486   8.9677954  -9.0930939  19.4370346 -10.5142403
  -8.5475121  18.9687366  -9.8197231  -8.4464073  19.4407158 -11.2429380
   7.5875125  44.5975800 -18.8128357   6.9840908  44.4034576 -18.0694904
   7.7754087  43.6278992 -19.1171989  -5.2852259  11.6394110  40.3933563
  -4.5688648  12.2777338  40.5503807  -5.9199815  12.2252712  39.9501343
  28.1028595   7.8038402   4.0371113  28.2610054   8.7090979   4.4803476
  27.1663723   7.7132292   4.2281775  -2.0928473  -0.2691796 -28.8942852
  -2.4301815   0.0542226 -27.9958763  -1.5948628   0.5865564 -29.1569405
  16.8380070  11.4222059  37.5362053  17.6591358  11.8489046  37.2901192
  17.1326275  10.5793896  37.8520737  -7.7903485  -7.5532823 -29.4301529
  -8.4281464  -6.7789426 -29.3882122  -7.5859151  -7.4005532 -30.4094162
  13.3089046 -30.1731377   0.1929644  12.5824013 -30.7222862  -0.0342341
  13.6339884 -30.6700554   1.0041392  -1.1232491  30.0208340  22.3992405
  -0.4342201  30.1035290  21.7557659  -0.7350661  30.3137379  23.1975040
  36.4348335  -9.8272724  20.4770584  35.5116539 -10.0109863  20.4700031
  36.4528923  -8.8528643  20.6391945  20.5561905  16.3838978  21.7280178
  20.4492760  16.0021820  20.8277454  19.7896938  15.9892530  22.1435890
   1.8677226  24.9343319 -28.4539680   0.9364432  24.6753674 -28.1302319
   1.8017037  24.8476772 -29.3898182  -1.1640298   9.8871937 -23.0594959
  -0.4076745  10.5419846 -23.0155811  -0.8180293   9.3222904 -22.2646980
  26.0732746 -27.4834290 -11.3763285  27.0262394 -27.4585705 -11.4492207
  25.7127705 -27.6943932 -12.2992105  26.5989857  25.0406437  14.0174894
  26.1131172  25.5506630  13.3331709  26.1717701  24.1973495  13.8603573
  -4.3666778 -45.7181969 -20.5233498  -5.2873955 -45.6245461 -20.8505077
  -4.4908667 -46.3891335 -19.8757668 -15.8048639  -6.1378140  24.5878830
 -16.4983292  -5.7065563  24.1366806 -15.3132944  -6.6547542  23.8692894
  29.1132412 -26.5839405 -28.9574509  29.2453327 -27.3748169 -28.3909702
  29.4722042 -25.9176579 -28.3754921 -17.4676113 -23.3902035 -14.4324961
 -16.9490433 -23.9204502 -13.8249836 -17.0704060 -22.5048389 -14.3248920
   8.1951447 -28.0770149  14.6647272   9.0030327 -28.5727615  14.9145813
   8.6681976 -27.2590523  14.3662958 -18.5663242  22.1319714  -5.2330313
 -19.0845699  21.9175510  -6.0553179 -19.3242779  22.5367832  -4.7248254
   1.2525936  36.8043175 -28.6754246   2.0056467  36.5747147 -28.0008888
   1.7838676  37.4824829 -29.1568336  -3.5267889  28.1187458 -32.8369637
  -2.8890872  27.3646946 -33.0317307  -2.7967129  28.7096043 -32.4993362
  24.5071220  11.9024382 -15.2615023  25.5031605  11.7033186 -15.4121170
  24.1719208  11.1430416 -15.8157082 -24.0486031  27.2663593 -22.0955391
 -24.2252598  28.2356663 -22.0285606 -24.8864994  26.9816074 -22.5039062
  34.1947899  34.1555748   6.9846945  34.8539047  34.8599396   7.1493144
  34.6092529  33.4268799   7.4390397   0.3280926  16.9193344  28.1930141
  -0.4617203  17.4747753  28.3087654   1.0251162  17.5990715  28.2515984
  16.8985023  26.9897003  -5.0334826  17.2367287  26.3762569  -4.3598862
  16.1519909  26.4357605  -5.3388004 -11.2122345  40.6075058 -13.5273142
 -11.1277771  39.9613914 -12.7942648 -11.5945530  39.9708023 -14.1732159
 -17.9162827 -27.7649956  -0.5616730 -17.7339935 -27.4136524  -1.5105509
 -17.5000744 -28.6788597  -0.7156119  36.7867737  36.0711403   3.1291094
  35.8635445  35.8737679   3.4526372  36.5660057  36.8765640   2.6083248
  15.8612232 -25.6221733  16.6218319  15.3167715 -26.2091560  17.2182598
  15.3998585 -24.7765484  16.6793041  13.5047092 -23.3463211  -9.3310518
  12.9706497 -23.6175098 -10.1012573  13.2297668 -22.3885021  -9.2709923
  28.5865231   4.0731525  27.4029770  28.1016827   3.3452938  27.7973080
  27.9502010   4.8277287  27.5377102 -23.3363934  -8.4421921  -0.8547569
 -24.0109882  -7.7069740  -0.8709511 -23.4781475  -8.7842426   0.0663753
  -5.3520722 -14.7185011 -28.8031578  -4.9322686 -13.9564753 -28.3409367
  -5.7696600 -15.1045122 -28.0164547  26.4601536 -31.8440342  32.6180916
  26.5927639 -31.5634251  33.5168037  26.1215382 -30.9533329  32.2554054
 -34.4600182   1.3334134  -8.6714802 -34.4224052   0.3284944  -8.5962830
 -34.0860748   1.4569412  -9.5830698 -34.8715553 -34.9036484 -17.7557449
 -34.2207108 -35.6333542 -17.7381535 -34.3762436 -34.1511688 -18.0127277
  11.8772335 -29.2492771 -13.5724468  11.1719790 -29.7817326 -13.1141624
  11.6406269 -29.3442402 -14.5189972 -18.6796589   9.5459137  33.4498520
 -19.4739189  10.1222839  33.4367142 -18.1356144   9.9393253  32.7095604
  10.3825655 -32.5223045  38.0188789   9.7153749 -32.2521324  37.3052597
  10.9549732 -31.7444324  37.8599052   2.2309728  24.9974327  11.0068016
   2.7589719  24.6959248  11.7766581   2.7863703  25.6543674  10.6548929
 -14.8318596 -43.5319595 -12.5643330 -15.2559032 -42.9932556 -13.2826099
 -15.6221905 -44.1290131 -12.3552160  34.4384346 -24.6704311  -3.9987657
  35.3511505 -24.5392017  -4.4025922  34.7918053 -24.4899540  -3.0509298
  21.4042263   8.6077948  -8.5383186  21.1767159   8.5325708  -7.5757380
  20.6283340   9.0211391  -8.9429569  -6.3484187  14.8917398  27.8267479
  -6.4963369  13.9293518  27.6875381  -7.2880197  15.2027330  27.7070198
   9.6209831 -31.1852074 -21.1473808   9.4266262 -32.1372986 -20.9203568
   8.9113550 -30.9826069 -21.7967606  32.0611229 -17.8130322 -20.6386604
  32.3196335 -18.4177132 -19.9155865  31.1458263 -18.1640301 -20.8492279
   1.8217682 -37.8469620   9.9847193   2.7858694 -37.9536667   9.9051571
   1.5135764 -38.6346130  10.3297424 -30.1962299  35.6917839  -8.2162819
 -30.6227150  34.7840309  -8.1760092 -29.8565235  35.6753540  -9.1149511
 -18.8721027  16.2828312  40.4168625 -18.4063683  16.5065041  39.6000404
 -19.7065296  15.8403664  40.1094627 -11.0870867 -25.9233913  -7.1552591
 -11.5560417 -25.3843250  -7.8597717 -10.9885235 -25.2651043  -6.4553947
  44.2950020  21.2917233  10.9576416  43.5499954  20.9851685  11.4845428
  45.0601349  21.1001167  11.5333014 -21.3182373 -29.2510796 -27.0366306
 -21.7871742 -28.4812222 -27.3817425 -20.6836090 -28.9043655 -26.3785248
  10.3856859  19.3196754  -6.7959709   9.8314323  18.5041733  -6.5834327
  11.1888380  18.9380779  -6.9506912   2.8602085 -19.5913601   2.9177222
   3.0827904 -20.4438820   3.3393853   3.7125499 -19.3407707   2.5159302
 -17.8229561  21.7558727 -20.0423203 -17.6086655  22.6884823 -20.2789288
 -17.5698700  21.3239155 -20.8911724 -42.5980606 -10.5424509   9.2607460
 -42.0179062 -11.2789164   9.1508913 -43.3764992 -10.8324995   8.6884975
  -0.4302660  32.8833961 -11.6427050  -0.3325298  31.9224205 -11.4328756
  -0.3893286  33.3342514 -10.7962513  37.0031891 -26.4053402  10.2126188
  36.7040443 -26.3877563   9.2848654  36.5760498 -25.5075054  10.4914541
  30.9109707  20.9942036  20.9484711  30.6439400  20.2306786  21.5251884
  30.3425827  21.6463871  21.3761253   1.7615775  15.5502377 -24.5584812
   1.8104384  16.1245098 -23.7764339   2.5406764  15.0593586 -24.4725323
 -20.0708466 -26.2168789  -6.6642661 -20.9013824 -26.0017281  -6.1728444
 -20.2503910 -27.1195526  -6.9779649 -11.4391546  -8.0050087 -19.2304153
 -10.8204317  -7.2641273 -19.3717823 -11.2820663  -8.5637665 -20.0395718
 -30.5357533 -27.7431107 -10.3007069 -30.7427921 -28.7130146 -10.1157141
 -30.4184437 -27.4946289  -9.3594513  20.0329895  13.2710361 -10.0224524
  19.6867638  13.3633652  -9.1030807  20.0600491  14.2534456 -10.2597713
  19.4151497   0.3056773   9.7430830  19.2308025  -0.6043185  10.1770430
  20.1585522  -0.0285456   9.1484842  21.2266216  -3.1452472  17.3562336
  21.1517544  -4.0803461  17.1413403  21.9049263  -2.8209198  16.7198792
 -12.8506918   8.1254797 -45.3780174 -12.7349968   8.9735565 -44.8739662
 -13.8464136   8.1453876 -45.5395622   9.7901859  32.9967461  29.2156773
   8.8988533  33.4225006  29.3362484   9.4215002  32.1271515  28.8985252
 -42.0406075  -2.6961055  29.9463692 -42.7621880  -3.1324353  30.3620491
 -41.3861694  -3.4271910  29.9539051  26.9863014   0.5118949 -36.1372604
  27.7008915   0.4300513 -36.8572464  26.7801170   1.4763848 -36.2747383
   4.8899994  21.8187237 -16.0463886   4.4045901  22.2242470 -15.2816029
   4.2222657  21.1405258 -16.2937508  19.8110638  10.0427895 -26.4772778
  18.8418446   9.9404793 -26.4732971  20.0189362   9.5633974 -25.6538849
 -43.5159302 -11.2013836  26.8100281 -42.7804680 -11.8024940  26.5161800
 -43.4964294 -11.4921951  27.7673206 -38.2959061  14.1702690  19.5984077
 -38.2800941  15.0303373  20.0760078 -38.6203232  13.6484766  20.4046555
  17.3071423  43.8468933  13.1198750  17.5706654  44.1111488  12.2509747
  16.3584366  43.6312561  12.9807262  -8.2258472 -19.6716938  19.5051117
  -7.9010124 -18.7574005  19.4020767  -9.0315495 -19.5820885  18.9333572
 -19.0453739   2.5867426  26.9388351 -18.5720367   2.3647792  26.0541706
 -19.3925629   3.4091346  26.5993767   7.8877997  -1.7137722  20.5614777
   7.8780026  -2.5808783  21.0485573   7.3592348  -1.2036221  21.2685452
 -28.8874989  19.9313736  -6.3988109 -28.2310314  19.2549496  -6.2066092
 -28.6822968  20.1779251  -7.2850952  29.1005535 -29.6383781 -28.4826069
  29.4781132 -30.2342606 -29.1481743  28.1613197 -29.9118423 -28.4814415
  33.5399933 -15.4659834 -14.7693205  33.8397903 -14.9227438 -15.4965649
  32.5904312 -15.4465227 -14.8014221  26.0664654   0.7541406  35.2905388
  26.6037159   1.3917158  35.8129539  26.3924599   1.1554677  34.3651161
  -7.0357080 -12.1916361 -35.7465782  -7.7294698 -12.4473362 -35.1618423
  -6.3820529 -11.7751846 -35.1377792  -9.2037983  -8.0652056  27.7085323
  -8.4462099  -8.3809338  28.3076534  -9.1091814  -8.7884760  26.9812355
  27.1590137  17.4282207 -26.0365601  26.8440742  16.8732281 -26.7808361
  27.7885513  18.0630836 -26.4302826  -9.5220432  20.7651577 -21.9385490
 -10.3907537  20.7812004 -21.5246315  -9.2982759  21.6648960 -21.9329567
 -22.3484764 -43.6990623  17.8334694 -22.5511112 -44.3540230  18.5435276
 -23.1604137 -43.7438774  17.3212185   2.3563528 -46.0849648 -14.1163235
   2.4369137 -45.4808922 -14.8675213   1.5141983 -46.5036316 -14.2883940
 -23.2129307  11.3860493  38.5054626 -22.2580814  11.6373491  38.4650764
 -23.6275845  12.0320425  37.8691826 -41.2761040  16.7316360 -25.9113159
 -41.6269836  16.6470184 -25.0095520 -40.5638695  17.3894997 -25.8010216
  22.2286720 -22.3658276 -35.3871040  22.0894604 -23.1510963 -35.8792419
  22.2103863 -21.6206932 -36.0142136 -15.9573460 -23.3199959  15.6291409
 -15.6750288 -23.1117821  16.5325279 -16.8844891 -23.4435959  15.6930304
 -13.7767754 -30.5901966   3.7525513 -14.5146637 -31.1635399   3.4859385
 -13.6467075 -30.0919991   2.9205229  -1.5289531  -7.0743265   6.3964605
  -2.4233453  -7.4311805   6.1747828  -1.7493415  -6.1190362   6.5159912
  16.8942642 -38.3865738  -4.5139194  17.5253334 -38.9980545  -4.1118279
  16.1151752 -39.0141144  -4.5964756 -12.0540237  29.4104023  11.1747351
 -12.9767218  29.8858032  11.2085047 -11.9682350  29.4876423  10.1605492
  -8.4769630   7.9099884 -34.5905685  -8.4393559   6.9427633 -34.5761223
  -8.3575954   8.0592346 -35.5231018   0.3100669  34.7611046  11.7942028
   0.0596449  34.1233940  11.0565348   0.7324806  34.1416092  12.4120598
  -2.8756206 -43.6227875 -26.3790283  -2.3657563 -43.9797745 -27.1467094
  -3.7829897 -43.7121468 -26.6730289  30.6867714  -7.6083989  23.1840591
  31.2193146  -8.0858822  23.8481560  31.1179810  -6.7508998  23.2870693
  21.3828125 -32.1728745 -27.8940086  21.9300270 -31.9784164 -27.1683102
  21.6099434 -33.0739365 -28.0716457  28.6325550  -4.7996683  33.7740097
  28.4677048  -5.0500016  34.7103653  29.1567268  -3.9992735  33.8884430
 -24.1237316 -10.7791023 -22.4808693 -24.0537872 -10.7485132 -21.5489979
 -23.9310608 -11.6608047 -22.7733288 -19.5073433   4.3180113  10.7621431
 -19.8239765   3.9101434  11.6042833 -20.1406746   5.0610628  10.6820650
   6.4020867 -16.6337032 -37.1346130   6.2800603 -16.0542355 -37.8873787
   6.5168529 -16.1245747 -36.3468895  21.3638611  15.2955770   6.8240848
  21.6933384  14.4237995   7.1771083  22.2190418  15.8273897   6.9886594
 -34.6462135  13.6015024  29.0790157 -34.8103218  12.8617773  28.4277420
 -34.1097221  14.2205219  28.5884762  26.4351425 -34.6479988  11.4018707
  25.7221909 -34.3413315  10.7580214  25.8460159 -34.6304665  12.1856079
 -21.5967350 -29.6493778   2.3580360 -21.3489113 -30.4525623   1.8838428
 -20.8220787 -29.1493130   2.4567249   3.9529259  14.9117470  15.0025082
   4.2232494  15.3593979  15.8267603   3.7074363  15.7141743  14.4458637
  19.7806110  -8.3498678  11.4794302  20.0380249  -8.3083086  12.4178839
  19.9097519  -9.2654142  11.1817703  28.7505360 -11.3482685  26.4367390
  27.7557354 -11.1628304  26.5048447  28.8788624 -11.8468132  27.2354660
 -40.2588806  28.6038399  15.1034536 -39.3894539  28.1438007  15.0861893
 -40.0577507  29.3172779  15.7810364 -20.7029934 -35.3793869  24.4997883
 -20.8743477 -34.9741325  23.6093655 -19.9031334 -35.9130058  24.2307243
   0.3782825  -6.4861236 -38.0729713  -0.1036871  -7.2976022 -38.2946701
   1.1789900  -6.5834088 -38.6702347  -2.1857882 -19.0541267 -27.1587448
  -2.1546128 -18.1584530 -26.6826992  -3.0451534 -18.9773159 -27.5817661
 -12.6809750  42.3867760  24.8312244 -11.8884840  42.8513145  24.4775352
 -12.6854563  41.6017761  24.2475338  -2.9885359  39.7832909 -17.7259197
  -2.2486162  40.1062279 -18.2689762  -3.6379430  40.5193367 -17.7822514
 -14.5977440 -46.1733513  -4.4343772 -13.7634678 -45.9281425  -4.0281553
 -15.2571936 -45.6138535  -3.9104567  16.3446503  22.6402950 -21.4749680
  16.3076878  23.5561714 -21.1310425  17.1574841  22.7675610 -21.9985828
 -18.7920132  40.3044968  -3.2590835 -18.8060589  39.5014076  -2.7282479
 -17.9704494  40.7314034  -2.8741748 -25.8576183   7.4344454 -16.5935993
 -25.6674461   7.5190597 -17.5911827 -26.8181953   7.0727797 -16.6792946
   0.2361275 -25.2380390 -29.6579075  -0.6108468 -25.6007328 -29.7575054
   0.8403438 -25.7042694 -30.2844658   2.0890872 -29.8739891  14.0502386
   2.5476623 -29.6965351  14.8834667   2.1949341 -29.0243855  13.5699530
  -8.0276985  14.7817755 -11.9076786  -8.4858198  13.8753452 -11.8157120
  -8.8043013  15.3413057 -11.9736280  43.4156494   0.2781005  -3.5579958
  43.1355553   0.0216743  -2.6278441  43.3292465   1.2734405  -3.4387105
  11.8652506 -21.1328773 -27.5794888  12.4194498 -21.0922489 -28.3824806
  12.4571953 -20.8060741 -26.9147110 -31.7907734 -20.3534908  12.2481222
 -32.2294121 -21.0323486  11.6651573 -31.0968189 -19.9994602  11.6874161
  20.3971405   3.0503886 -32.2666664  20.5250931   3.2542427 -31.3289433
  19.7170105   3.7394514 -32.4640541   8.4093513  45.2616158 -15.4823627
   8.6414557  45.2951622 -14.4895000   7.4255362  45.4082985 -15.3599844
 -13.4335394 -12.3383265 -38.6385574 -13.5989809 -11.6823435 -39.3189240
 -13.4431753 -11.8041735 -37.7874565  44.1307487  28.9722881   9.4632607
  44.3966904  28.1047745   9.7866182  44.4861259  29.5952244  10.1581593
  16.1158867  14.2995996 -17.4437885  16.5302563  14.1503057 -18.3140774
  15.6412840  13.4244843 -17.3296757  27.3418674  -9.4947739   3.1176119
  27.1344032  -8.6982260   2.6347656  27.5482807  -9.1475849   4.0012422
 -10.6183605   1.6629094  26.8505096 -11.2662458   2.3228781  26.4060707
 -10.1756220   2.2074959  27.5138073   4.2588959 -44.4648933 -12.7405558
   3.4536934 -44.9232712 -12.8216915   3.9898560 -43.5216141 -12.9014120
  35.4094582 -14.0880566 -32.9791222  36.0417595 -14.7788057 -33.3956413
  35.7871742 -13.3159180 -33.4747963  -6.5221996  17.6392536 -11.1971941
  -6.5180502  17.5475044 -12.1760206  -6.4909663  16.7223110 -10.8627176
  -4.5085473  11.7320366 -28.1951656  -4.9525280  12.2323236 -28.9284496
  -3.5534360  11.9706583 -28.3230362 -23.9973679  17.6251621  36.5922813
 -24.5998802  17.9028187  37.2937241 -24.4174690  16.8303814  36.3266792
  13.9482155 -13.4374208  40.0928307  14.2260361 -14.3127403  40.5062561
  14.7425423 -12.9670792  39.9247398  24.3047409  -2.9298162 -33.3679962
  24.1144276  -2.6047943 -34.2236633  23.4261608  -2.9737542 -32.9236259
 -33.8808632  22.5942039  26.1589565 -33.6251755  21.9812050  25.4630890
 -33.3799400  23.4107628  25.9586620   3.7923715 -25.8712654 -27.0189762
   4.0975475 -26.1251144 -26.1742859   2.9164383 -26.2539597 -27.0623856
  40.1721230  -3.5574713  20.1396618  39.8600731  -2.9207520  20.8071022
  40.9767685  -3.8911946  20.6157207  26.8907490  34.5077477   3.3550704
  26.2320347  34.9921532   2.7814741  26.8557129  33.6288185   2.9423096
  35.8978271   5.6890197 -15.6246128  35.2779503   5.4649549 -14.8591881
  35.2267761   6.1209044 -16.2232590 -32.7358475  26.7528191   4.8024063
 -32.6662178  26.0521049   5.4846983 -32.2868080  27.5030479   5.2013001
 -12.1473083 -11.6466179 -28.3645496 -12.1492777 -12.5096073 -27.8705578
 -13.1051617 -11.5675468 -28.6080551  28.4917679  26.9733582 -25.3508835
  27.7296200  26.4191113 -25.7561703  28.1748314  27.8844814 -25.7659874
 -40.8942719  23.4721813 -21.7830334 -40.4659462  24.2899590 -22.2557545
 -41.6517677  23.3337135 -22.3790188  -6.5852208 -18.7139950  10.3387403
  -6.0590463 -18.5716648  11.1746397  -6.9365606 -17.8028164  10.2313547
 -38.1525383  12.2124567 -21.7190132 -38.0972977  11.6825609 -20.8846855
 -38.7933998  11.6535873 -22.1944485  -2.9924591  32.0134506 -10.2097702
  -3.3122797  32.5873566  -9.4657145  -3.6930487  31.3550186 -10.1645985
  14.1157331  39.6781540   5.6330514  14.0575428  38.8902931   4.9976740
  15.0542126  39.4764061   5.9253359 -21.2328396 -33.9037247 -16.4016933
 -21.9572201 -34.3510895 -15.9166536 -21.5222111 -33.8640862 -17.3132038
 -23.8578377  26.1728191   0.4501330 -24.3982754  26.8186798   0.8919576
 -24.0477982  26.4544010  -0.4980758  35.5069885  25.5147018   3.5540516
  36.0791130  25.7058277   4.3217988  34.8707237  24.9041252   3.9909821
  30.7562313 -27.4281693   8.5477266  30.2153664 -28.0217571   7.9852090
  31.6537838 -27.8931675   8.4395018  39.0974808 -20.9499798   8.4556112
  39.8203583 -21.6092281   8.3366337  39.1504517 -20.9021606   9.4340334
   2.8149366 -12.8006458   4.6144743   2.6532445 -11.9918699   5.0758839
   3.1770234 -13.3616180   5.3388448 -18.3120213   6.1433101  -9.5212221
 -19.0356979   5.9735842  -8.9069691 -17.7304592   5.4308405  -9.2702017
   3.1029727  -7.5776992 -35.3596840   3.8138430  -7.8755026 -35.9660416
   2.4978247  -8.3579130 -35.3705597   5.0790315 -10.5366135  31.0104923
   4.9303274  -9.6139088  31.2031765   4.5456166 -10.9798517  31.7308311
 -27.2205925   9.4788599 -43.1850052 -27.4451694  10.1708183 -42.5475388
 -27.7411404   9.7689524 -43.9757805 -41.4118423 -22.4206295  -9.0263481
 -40.7079353 -22.5420685  -9.7198877 -40.9438515 -22.9607430  -8.2816954
  21.1574173   8.6118212   6.9949222  20.6701660   8.1198273   6.3049536
  21.1983891   9.4706335   6.6010799  37.5903854  19.7997208  -5.7169127
  37.9774437  20.4182491  -6.3826413  38.2860107  19.6803875  -5.1043730
 -22.5782318  33.3715477   4.5524783 -23.5356579  33.2521591   4.6237450
 -22.4591007  33.0046692   3.6745672  24.9396515  36.7550850   7.6144977
  24.9284286  35.9109917   8.1687450  24.3001480  36.4724121   6.9499836
 -40.4228096   4.0904684   9.9258223 -39.8881149   4.5983777   9.2893162
 -40.1284790   3.1610644   9.6905165  -3.8501797 -19.1431923  24.7847538
  -4.6966362 -19.1680412  24.2679329  -3.9874480 -20.0075531  25.2854919
  31.6228313   4.7276263  25.9228859  31.3453560   5.0942640  26.8057251
  32.5702972   4.9695716  25.9867115  18.7009506 -19.3430481 -31.2610435
  17.9229622 -18.7604160 -31.2612038  18.4946632 -19.8863659 -32.0095253
  -2.6097815 -17.6747494  22.9869804  -2.7726893 -17.9457550  22.0630722
  -3.0804183 -18.3752632  23.4708347  -2.0367274  12.5699911  23.7310677
  -1.6881051  13.0562611  22.9016094  -2.6570098  11.9308119  23.2821636
  36.1429939  31.7112465  11.9947662  36.5198936  32.5677528  11.8700981
  36.9524841  31.1577492  12.0460386   6.4703956 -14.9558372 -35.0494728
   6.0626206 -14.0422907 -35.2335548   7.3846974 -14.7114325 -35.2879715
  -7.0261970  -0.5696828 -39.8058434  -7.9922972  -0.5126261 -39.9178810
  -6.6833348   0.1077992 -40.3549423  28.4132004  -1.0952315 -21.0669975
  28.3807373  -1.8267766 -21.7368984  29.3176842  -0.7825068 -21.2194328
 -16.4397449 -17.9424171  17.1135674 -17.4358444 -17.9260006  17.0051136
 -16.1970978 -18.4049969  16.2574577   9.1429396  47.0068893   0.1546249
   9.7072954  46.2071915   0.0488235   8.2779846  46.6280441   0.3979293
   8.4285479  15.1923494 -24.4250431   7.6241736  15.7478752 -24.7244682
   8.3052588  14.4018307 -25.0000458 -10.1924410   6.5487261  25.6615295
 -10.4970722   7.4318094  25.3774853  -9.6716776   6.8236628  26.4328938
  -1.0745671  -5.1690931 -47.9386292  -0.4850574  -4.6570721 -47.3317719
  -0.5866854  -5.1172786 -48.7930679  41.5593033  -0.2276821  18.6680698
  41.0213394   0.0879950  17.9525375  42.4443398  -0.3220839  18.2922878
 -11.2203484  31.3479328  17.5208874 -10.4747391  31.1990623  18.1918240
 -11.4313021  30.4268208  17.3195667  22.0497913 -29.8635750  15.7278433
  22.3674316 -28.9746780  15.4859810  21.2960129 -30.0112991  15.0931845
   0.2377978  23.1332588 -35.6463127   0.7477809  22.5030727 -35.1475143
   0.9809499  23.6466579 -36.0622826  11.2090406  32.7754517 -27.7174301
  10.8444853  33.6057777 -27.4185581  11.9303522  33.1749916 -28.3001976
 -42.2362480   2.9104314   1.8379182 -42.4698944   2.0524487   2.1854453
 -41.5386429   3.2446971   2.3722122  24.6158428  17.2638264  31.9529190
  25.1527157  17.6776409  32.6704063  23.9790878  18.0302086  31.8299751
  23.3461971 -29.2429504 -29.6942158  23.1883469 -28.7000656 -30.4487457
  22.5659885 -29.8078938 -29.6228657  15.5937490 -12.3116932 -13.5756264
  15.3486452 -12.4256048 -14.4783096  15.3712683 -13.1557550 -13.0832052
 -14.5692167 -37.9023399  -2.9444909 -14.7562399 -37.2162743  -2.2827985
 -14.1069565 -38.5653038  -2.3987384 -28.6094608 -39.6792641   2.7834957
 -29.1249866 -40.0529137   3.4956923 -28.3028831 -38.8417091   3.2240491
 -25.2088661  -8.9468241 -38.5888214 -25.7397976  -8.8177156 -37.7454987
 -24.9512157  -9.9150095 -38.3723488  12.1624126   3.4225175  17.7792530
  11.3348885   3.2977803  18.2894039  11.8552570   3.6894162  16.8984680
  40.7206497  -1.1507432   0.7178322  40.1201706  -1.4878154   0.0171972
  40.2126732  -1.4530027   1.4995642 -18.5388298 -21.4050465 -27.5898018
 -17.5662994 -21.3243694 -27.3394928 -18.9454231 -21.3060322 -26.7353325
  22.2233257   9.3106108 -20.4403687  21.7702370   9.8421774 -21.1424789
  22.2436886   9.9106112 -19.7065792  -5.5412107  -6.0791287 -22.0567360
  -6.3018928  -6.4387622 -21.5829506  -4.9544716  -5.7884474 -21.3445072
   5.1150813 -29.6379929  13.5329695   6.0084877 -29.6502438  13.1232471
   4.5244737 -29.8957062  12.8509836 -24.8778324  23.6549644   4.8914299
 -24.8495674  24.4649830   5.4377875 -24.1470757  23.9037838   4.2515736
  39.8750038  -5.0757298 -25.8129616  40.3557510  -4.6352496 -26.4976768
  38.9680405  -5.2126255 -26.1294613  10.0071888 -28.9458008 -26.9252052
  10.7454443 -29.3401966 -27.5366344   9.3178873 -28.8903255 -27.6466179
  -7.6618967  13.5618954 -32.6505585  -7.4980316  12.6205187 -32.3173676
  -8.2344351  13.3611231 -33.4319916  17.4032784  23.3355865  12.7998571
  17.5917473  22.5450897  13.3180943  16.4447727  23.4499187  13.0439701
 -11.9916811  11.2268381 -30.1699295 -12.5460405  11.0273094 -29.4343567
 -11.3722496  11.8454075 -29.7488041   4.8276062  47.5106087 -22.9348278
   4.5985847  47.3621979 -23.9252014   5.7470355  47.1863556 -23.0016003
 -20.9038372   3.0496573 -37.4986687 -20.2806911   3.0646312 -38.2619820
 -21.6318550   3.5735812 -37.9363174  17.4417076  -1.9195023  -1.1848954
  17.5875340  -1.2491256  -1.8861333  16.8943176  -1.3672084  -0.5470378
  12.6928902 -28.3869343  29.8909702  12.0118465 -28.8406849  30.4883823
  13.2578373 -29.1217728  29.6419163   0.6554757  -4.0607281  19.2841797
   1.6384691  -4.1091380  19.4060917   0.5680823  -3.9339359  18.3462982
   8.9310169 -16.5575523   9.1666136   9.7928076 -16.4277992   8.7004261
   9.0236244 -15.9103842   9.8729620  40.8831139  10.7133484  22.7599049
  40.2947464  10.0848036  23.1965313  40.4715118  11.5667887  22.9183331
  26.6321278  -7.4926701  37.0295334  26.1457920  -7.3356771  37.8251266
  26.2136574  -8.4069529  36.7835846 -43.9108582  -3.2240701  32.7343216
 -44.5709152  -2.9303224  32.0568237 -44.0460815  -4.2201223  32.6913490
   5.4633226 -33.0087357 -20.6040802   5.6077824 -33.6738281 -21.3240967
   6.3840609 -33.0318794 -20.2092590  32.6677933  -5.5315185   4.2634320
  32.1475182  -6.2174292   4.7111330  31.9790344  -5.2545547   3.5338638
 -27.6589451 -22.0723000  10.5541525 -28.1112137 -22.8930168  10.2373419
 -28.2439842 -21.3723373  10.2889500 -27.2019138 -28.2143497  10.5303221
 -27.0142689 -29.1902752  10.5185957 -28.1175079 -28.2333641  10.2075005
  22.3298264  15.1082191 -25.7114658  22.6419716  15.1614494 -26.6523170
  23.2007351  15.0728168 -25.2315884  25.1180058  -9.2519617  18.7568893
  25.7281590  -9.4627628  19.4591255  24.3617401  -9.8563118  19.0445271
   0.8662216   1.6016885  45.1441765   1.5785565   1.2897182  44.5638580
   1.3746386   1.9062611  45.9115524  20.0714436  20.6551075   6.0462499
  19.2640305  21.0510712   5.6709671  19.6892109  20.2026215   6.8539505
  -3.1015813  27.2978592 -10.9207516  -3.3540835  26.5799713 -10.2886305
  -2.2851760  27.5860062 -10.5746613  15.4900389  10.9500084 -21.3355503
  15.2626724  10.4682856 -22.2107906  16.4132538  10.5412416 -21.2930832
 -25.0158386  22.9879894 -19.2995434 -24.7831459  23.6646633 -19.9358616
 -24.1359196  22.6487923 -19.0776157  15.2198658  31.8591080 -13.0134563
  14.6600399  31.9895744 -13.8379116  14.4705544  32.0693398 -12.3871193
   1.1444513 -19.4258957  22.6309032   0.5208525 -18.9332809  23.2211304
   1.1133953 -20.2948360  23.0251808 -30.3923149 -31.2741547 -12.4167767
 -29.5727367 -31.7535458 -12.4283867 -30.3540134 -31.0067730 -11.4167557
 -13.1211681   2.0852299  -7.2859073 -13.2426195   1.1871130  -7.5895734
 -12.5770445   1.9183546  -6.5128284 -14.9825592 -46.9438133  14.8029289
 -14.2098265 -46.7977638  14.2201834 -14.6008453 -47.5737000  15.4580069
   0.9774866 -13.8728628  17.7510738   1.6663347 -13.2502689  17.6363373
   1.3533106 -14.6187191  18.2417774 -39.1048584  22.8051109  15.6942263
 -38.9252205  22.1829796  16.4890308 -38.2923889  22.6607819  15.1835012
  -5.4495893   4.8295016  11.0445881  -5.2133050   4.4885297  11.9525814
  -5.5084553   5.8136625  11.2468920 -22.0818501  11.7318659  26.8276634
 -21.2386456  12.0320854  26.4177380 -22.1249294  10.8378592  26.4450016
 -15.8000135 -50.8598175  -5.4234271 -16.1156597 -49.9995079  -5.2123075
 -16.5839195 -51.4162331  -5.4860139  26.8413830  22.6222477  25.9853783
  27.2714195  23.0243759  26.8102989  27.1245899  23.2710228  25.3024368
  21.4701328  38.4804077  17.9091434  22.3157024  38.5673447  18.3463726
  21.3723469  39.2858353  17.3797054 -32.5283775  16.1568966  23.3433952
 -32.0022049  16.3489456  24.1069450 -32.2663727  15.2146845  23.2710533
  40.7225456  29.0154972  18.8802528  40.6205940  29.1833801  17.9251404
  40.6188965  29.9284515  19.2554150 -43.7895050 -11.8151102  -0.7972427
 -44.5106544 -12.1888285  -0.3000959 -44.1133118 -10.8828096  -0.9408900
  15.0221415  15.6471090 -21.8810825  14.0667143  15.7680264 -21.8174992
  15.2493687  16.5884876 -22.0588169 -38.9338036 -28.6102848   2.0926855
 -38.7222862 -28.4027615   1.1392568 -38.0181503 -28.8386154   2.3883762
   8.1673937 -12.3980169 -14.9055347   8.6223021 -12.0658188 -15.6732893
   8.8191795 -12.2740831 -14.1603651  38.4188805   7.6599350  10.3803234
  38.9313812   7.7080135  11.2531900  38.9169693   6.8776121  10.0222712
  -0.1782648  18.3688240 -10.3021402  -1.0095484  18.6072636  -9.8108234
  -0.4515963  17.4691467 -10.6429310 -16.1631947  39.2416153  28.6492176
 -15.9867249  39.8161240  29.4069328 -15.4884262  38.5015335  28.8937836
  -7.3191347  28.9102516   2.8156230  -7.9594955  29.3639107   3.3571007
  -7.6731734  29.0486813   1.9026897  -5.7939801  -5.3823700  15.4303455
  -5.6861768  -6.3958139  15.5299311  -5.4938970  -5.1580200  16.3061562
  26.6140461 -18.5561600 -16.9564171  26.8681774 -19.4773006 -16.8640347
  26.8870239 -18.3101788 -17.8471489   2.3140283  -9.4662304 -29.7814636
   1.6383779  -8.7933893 -29.6159019   1.7337375 -10.1867752 -30.0429382
  13.5165014   8.4146862 -36.4169502  13.0142775   9.2359095 -36.5057259
  13.1159763   7.8562346 -37.0870438 -20.3863220  21.0579624 -33.1639137
 -21.0627365  20.3174839 -33.3333626 -20.5865421  21.1678200 -32.2257805
 -40.6600761  31.3276711 -12.2304802 -39.8029099  30.8062916 -12.1648483
 -40.8810539  31.2815685 -11.2668810   4.1575804  11.8992882 -12.4708500
   4.9080181  11.7400942 -13.0794458   4.4564624  11.4802685 -11.6226654
 -26.8951340 -19.5318680  -4.6434789 -27.4389648 -20.1927147  -5.1924238
 -26.7832851 -18.8822308  -5.4399900   0.6074611   5.1963625  33.7532539
  -0.3714005   5.3837099  33.8521271   0.7656679   4.9166942  34.7080727
 -25.5326500  23.6895428 -34.6694565 -24.7195053  23.0838089 -34.7645760
 -25.0942135  24.5094700 -35.0122185  38.3881111   5.8430648  28.9980145
  38.0085869   6.0209966  28.0359917  38.1837349   6.7397285  29.3923950
   4.3458776 -28.8232155   2.4142919   4.7256284 -29.0690975   1.5445122
   3.4519553 -29.1398029   2.2707226   1.3302455  35.4761200 -16.6322632
   1.5495214  36.2946014 -17.1166611   1.0439482  35.7903137 -15.7586260
  12.1043653   5.1754341  30.1378651  12.7668943   4.7585130  29.5105247
  12.3209867   6.1134424  30.0523129  -9.9057693  21.3198528  19.9774323
 -10.4090347  20.7538090  19.3007336  -9.8712358  22.1508369  19.4393444
  -8.8187656   5.9754963  36.2417259  -8.7418308   6.6039872  35.4849243
  -8.3486767   5.1789827  35.8579445 -17.0505524 -25.1857853 -10.1602783
 -17.4338741 -24.7845688  -9.3182888 -16.2559929 -25.6111660  -9.7748356
  -7.6443162 -33.7443581  -0.2361123  -6.7663035 -34.2194405  -0.0556748
  -8.1714983 -34.0806351   0.4594955  39.3272171  -7.1396351   6.6840019
  39.7254829  -6.2107387   6.6077366  39.6949234  -7.5562100   5.9061894
  -6.4751697  33.3921738  37.6286049  -6.9800634  33.5701141  36.8465309
  -5.9178414  34.1443558  37.6881332   8.7847376  12.7893162 -10.2335224
   8.0776939  13.2856169  -9.7870836   9.1460238  13.5105705 -10.8219423
 -35.8386040  -5.6622076 -13.2714148 -35.9007111  -6.1718311 -12.4431725
 -35.0171928  -6.1532130 -13.6492977 -10.0632362   5.9714489   4.8525295
 -10.8944178   6.4929099   5.0308957  -9.5200882   6.6624603   4.3749146
  14.6536922 -29.4803848 -28.0599575  14.4839869 -28.8217678 -28.8104935
  15.0460358 -28.9518166 -27.4342136 -38.1892433  13.6557922 -17.6309357
 -37.6969185  14.2348728 -17.0149460 -37.9971695  12.8112936 -17.2612324
 -22.7291431  -3.7476664  -5.5033393 -23.6814327  -3.6823609  -5.2572727
 -22.2872829  -3.6767588  -4.6302094 -43.4340553  19.2716770  21.7640266
 -42.8108673  20.0185204  21.5873032 -43.9618759  19.7131233  22.4774685
 -42.6088715   0.8078447  14.2232571 -42.6523170   1.7691854  14.2675610
 -43.2699509   0.6287088  13.4810333   9.8541384  -5.5770588  35.7664642
  10.3223028  -6.3342681  35.4607315  10.4919004  -5.1531453  36.3234901
  16.7979279 -21.5296650 -36.3247719  16.3453541 -21.9457397 -37.1555519
  16.3226662 -20.6746902 -36.3874321  17.0378380 -30.8837852  25.0621262
  16.2254105 -30.3070450  25.1569653  17.1850758 -31.0884552  25.9898186
  18.4849472  -0.6127927   4.0214705  18.7512321   0.0995012   3.4907506
  19.3920937  -1.0034118   4.2568264 -22.8878155  38.6743355 -17.7239628
 -22.2152634  39.0245209 -18.4410667 -22.4559784  37.8906593 -17.4121952
 -42.0360985 -17.4824066 -12.6605654 -42.0059967 -16.6812325 -12.0530949
 -42.6692085 -17.1031456 -13.3763485  11.7083073 -29.3898754 -16.5183830
  11.1445723 -29.8745575 -17.1515026  12.2278433 -28.7929974 -17.1241837
  12.9305153 -11.8467951   8.2093735  13.6346235 -12.2211285   7.6579499
  12.9168186 -10.9052696   7.8790641  30.0795708  -3.0800681   7.9693089
  30.3633747  -2.1358845   7.8300881  29.6444130  -3.2120728   7.0835714
  15.3904057 -30.6547356  -7.5609741  15.2025099 -31.0762730  -6.6883712
  15.7900238 -31.3413639  -8.1030483  -9.6525097  34.1382713 -18.0441074
  -9.3166637  34.0875168 -18.9394035  -8.8736839  33.9745827 -17.4955864
  19.6502743  17.7683563   3.7666216  20.3067188  18.4643612   3.5718067
  19.0734367  17.9134254   2.9459515 -14.9088573  29.4616470  17.7302685
 -15.6609268  29.2755680  18.3355122 -15.1722651  30.0365334  17.0820408
  19.4157314 -19.7096806  14.6801338  19.6087513 -20.6750793  14.6204319
  20.3536720 -19.3933773  14.5016432  -1.5562260  44.4596519  -7.8148646
  -2.2488399  45.1794739  -7.6043911  -0.8608758  44.7348938  -7.1601229
 -35.1658096  30.0810337 -22.4774189 -35.6808319  30.4331818 -23.2674484
 -35.2969818  30.8005962 -21.8357391 -32.9631271  -9.5503874 -11.6188974
 -32.2646942 -10.2349539 -11.6379614 -32.4583321  -8.8523111 -11.0911169
  29.4034863   4.2247505  24.6276360  30.2527142   4.4962234  25.0810699
  28.8460732   4.0680695  25.3590508  44.3050919  14.9763956  20.3491573
  43.3526878  15.1846428  20.3569736  44.6008339  15.6005545  19.6031494
 -18.6327000   8.0811977 -18.8113155 -17.8841667   7.6700683 -18.3975296
 -18.3511848   8.9999180 -18.8954868  -9.8416529 -33.3972778  10.8863678
  -9.4122190 -32.8352509  11.5715504 -10.2499552 -34.0579109  11.5625372
 -14.8086996  20.0769386  28.2412510 -15.4151716  19.3752480  28.6247921
 -14.8696060  20.7213154  29.0117359   4.5384583 -29.6405945   9.0886545
   5.0366125 -30.4157410   9.4560089   5.0097380 -29.5262966   8.2483187
  32.9288025 -17.7180080  18.8394222  31.9975815 -17.6885471  19.0091610
  33.1231995 -18.6538582  18.8529015   6.8364005  12.6697741   0.9222075
   7.6096740  13.1763954   1.2327421   7.3063607  11.9166107   0.4408817
 -11.7590075   1.6205505   4.2875204 -11.3771238   2.3046849   3.7630093
 -11.8447666   2.0260584   5.1662664 -27.4762688  22.1364365 -31.3372631
 -26.5439415  22.0159016 -31.0057316 -27.3347473  22.8868561 -31.9037476
 -28.1286221 -17.4555550  -8.8518734 -28.5408936 -17.4007435  -9.7564592
 -28.9807854 -17.5737000  -8.3218098  23.4770718 -11.4080248 -32.5261002
  23.2741890 -12.3246861 -32.9360580  23.5284462 -11.7351761 -31.5729389
  -8.8900166 -25.0480633  24.9380550  -8.3349857 -25.3262959  24.1209259
  -8.8361998 -25.9108334  25.4201221  20.9616184  38.7298126   9.3848715
  21.3751106  38.4861069   8.5397921  20.3044262  38.0541801   9.4722090
   7.9679017 -14.3045349  -4.0868602   7.8121424 -14.8556137  -4.9471126
   8.8381586 -13.9162560  -4.3314085 -11.5895052   2.5988946  46.1046982
 -11.2326107   1.6802328  46.2414246 -11.0954704   3.1194413  46.7713203
  23.0030956  39.4938393   5.4848900  23.2543697  38.6487846   5.0626450
  22.0683670  39.2869072   5.7218695 -13.2672071  32.6168518 -36.5875549
 -13.5357199  33.2444687 -35.9387970 -14.0917673  32.5044022 -37.0800362
  -5.6441827   0.8501180  -9.2691650  -6.0863533   1.2101858 -10.0667534
  -5.9578600  -0.1089996  -9.3531837   7.5786333 -31.0248947  20.0133190
   7.5767474 -31.2598362  20.9378643   6.6581125 -31.3889961  19.7647419
  43.3591690  -4.4279404  -9.0039978  44.1640892  -4.8264675  -8.6216402
  42.7190819  -4.5817924  -8.3169012  19.6267262  44.3376427   6.1569433
  19.7219505  45.3166656   5.9585462  20.2890301  44.1979065   6.8646221
 -28.0387268  -2.3773606 -13.0965395 -28.1224098  -3.1926155 -13.6655931
 -27.9882450  -2.7923248 -12.2137680  33.0536156  -2.3970611 -27.1019630
  33.2049065  -2.8148959 -28.0349922  32.8933067  -1.4647408 -27.4739418
 -38.9556847 -12.3282976 -13.3867607 -38.8794098 -11.9494085 -12.5023212
 -38.7043724 -13.2410097 -13.3003521  -5.7709460  -7.8518143  35.3326340
  -5.5046616  -8.5216999  36.0107117  -6.3666286  -7.2756715  35.8592796
  26.2627869 -33.6234589  27.5925522  26.4109573 -34.1515694  28.4671383
  25.8791008 -32.8224983  28.0735378  11.3216381  39.6400490 -10.9446907
  10.6958637  40.2687149 -11.3332806  10.7446804  39.3366890 -10.2006941
  15.6237431  32.4772415  21.0433979  15.3228035  32.0459518  21.8613071
  15.5177650  33.4410133  21.2441044  26.5813465  29.4016113 -23.8460026
  26.9312305  29.5040264 -24.7433968  27.0546265  28.5711117 -23.5409031
  17.0415802  15.2659311 -15.0430012  17.9238358  14.9172745 -14.8996544
  16.7179451  14.8688984 -15.8435631 -29.8872795  18.2911110   1.1170480
 -29.0208435  18.4737625   1.6239638 -29.6933842  17.3481121   0.8582937
   8.7759047   5.9382753  13.6841326   8.5831165   5.0560484  13.3819885
   8.4387255   6.4864159  12.8886166  -9.1039209   7.9679685 -14.1639013
  -9.6247454   8.6649408 -13.8540678  -9.4503508   7.7971988 -15.0580883
 -31.6807575  -7.5251894   7.3745937 -31.5418816  -7.0882635   8.2114944
 -32.5983505  -7.8386388   7.4187469  19.4931889 -21.7759552  35.7278023
  19.3905544 -22.7653999  35.7381744  18.8996830 -21.6129856  36.5109634
 -11.5390072   4.1216145  35.4828491 -10.5961380   4.2584181  35.6419601
 -11.5692167   3.3094349  35.0438004   4.4362035  19.1882477 -19.1008358
   4.6370878  18.2333736 -19.2270622   4.5219698  19.1525784 -18.0803795
 -31.8480835   8.0009632   9.3913240 -32.3677025   8.7795458   9.6954565
 -32.0382767   8.0151186   8.3895311  -0.9342827  -5.1174302  20.8898945
  -0.8303779  -4.5378923  21.6230812  -0.1097405  -4.7762361  20.3515625
 -27.3037663 -28.8686676 -16.8660793 -26.8220520 -28.2997017 -16.2409229
 -26.6279716 -29.5694160 -16.9707794   0.5881067  21.2719860 -16.7949276
   0.3788754  21.6901264 -17.6478119   0.9678863  22.0316238 -16.2884369
  31.0392342  29.5536995  12.7972641  31.3322449  30.2091999  12.0325632
  31.8029366  28.9462643  12.7695389  -1.6289673 -26.9872723   9.9682369
  -1.3624642 -26.0792675   9.7870331  -2.4204247 -26.8305435  10.4981165
 -10.9341040  23.3481293 -15.2976370 -11.0869255  24.3155117 -15.1652327
 -11.1434669  23.0082932 -14.4012480   8.1772575  19.7105484   6.7731104
   7.6188097  19.5616837   5.9151034   8.7709551  18.9296799   6.6295452
  14.3882055  -4.3444347 -43.5231590  15.1963758  -3.8397412 -43.2600479
  13.7688532  -3.5852871 -43.5217171  31.7297764   7.4405212 -23.5231686
  31.4977455   6.6529970 -22.9926357  31.4393291   7.1929054 -24.4419670
 -21.6721325  36.0507393 -22.7868748 -22.6434937  35.9455147 -22.8176422
 -21.4862175  35.9459572 -21.8216934 -10.4047995  24.8108616 -12.2179995
  -9.7676735  24.9055576 -12.9296722 -11.1738262  24.3814220 -12.6317253
 -36.8595734 -17.4175949  -1.8010056 -37.7559471 -17.0191193  -1.8446506
 -36.3816223 -16.6258011  -2.1650915 -12.1135187 -23.5314617  22.9570465
 -12.9511604 -23.4353485  23.4847221 -12.4184666 -23.3509445  22.0655975
 -39.8243904 -23.5647125   9.0746460 -39.2414398 -23.1151619   9.7332659
 -40.3331337 -24.1801414   9.5334616 -13.6267223  -7.2222013  36.5668983
 -13.8194609  -6.4898825  35.9381676 -13.8928394  -7.9535599  36.0393181
  36.6251221 -30.2814770  -7.7272167  36.7943726 -31.1194668  -7.2786546
  37.0351257 -29.6157532  -7.1083937  11.7551718  30.3362885 -27.6990414
  10.9144211  29.9002419 -27.5153198  11.4464321  31.2797546 -27.6660957
  26.0007915  42.8720551  11.6077089  25.3870926  43.3755264  12.1195316
  26.5648251  43.5482178  11.2901669 -38.5743408  31.4964314  -3.6431148
 -39.2658234  32.1661949  -3.3848953 -38.9551582  30.7046280  -3.1984046
  35.6017075  -2.1462753 -25.1727428  35.6310349  -3.0930326 -24.7442017
  34.7463875  -1.7994928 -24.8356667  10.1997013  -0.5673713 -19.5140839
   9.7572565  -1.3449465 -19.9789639   9.6710005   0.1841674 -19.9182758
  33.7457390 -22.6577492  11.8568010  33.6395988 -21.6635742  12.0557051
  33.4933891 -22.6510029  10.9158430 -20.3226013  18.5611382 -26.8951950
 -19.9642029  18.6705608 -27.7966099 -20.0481033  19.3925018 -26.4619102
 -42.7268524 -16.8788071  19.0341167 -42.2786217 -16.5903206  19.8713436
 -42.0577278 -16.5617046  18.3615303  18.4312229   8.7603493 -18.6666126
  19.2453403   8.2524090 -18.6222057  17.7415218   8.1093664 -18.6592407
  12.0148191 -12.4168329  -2.4728956  11.6234322 -11.5876398  -2.0940166
  12.2928791 -12.8919859  -1.6683654  38.4335060  -3.7133660  37.4045601
  38.2207336  -4.6072855  37.8571892  38.8516769  -4.0871081  36.5782700
 -16.9224110   9.5550737  45.5342827 -17.2984200   9.5005922  46.4393692
 -16.8231640   8.6201944  45.3352356 -27.1161098  -7.0283403  32.8342896
 -27.2875156  -6.0488057  32.8570633 -27.2647724  -7.2228446  33.7838020
 -24.2007923  -4.8755889   4.9651108 -24.8486843  -5.5961018   4.8071208
 -24.4120235  -4.6301522   5.8933849  21.6185913  -0.0873028  23.1741142
  22.5386238  -0.3101929  23.3850365  21.5946350   0.8407277  23.5424843
  -9.9502478  40.9953690  25.4075871  -9.7543926  41.2940903  26.3090458
 -10.0399494  40.0164642  25.6073990 -14.0688047 -12.9781389   9.4407701
 -13.0787230 -12.6586685   9.5353203 -14.4790020 -12.3400850  10.0664778
 -26.4053097  16.9515190  29.8525753 -26.1782722  17.8375740  30.3026924
 -25.9116173  16.3446789  30.3839092   4.7990770 -17.0374451  -4.2949810
   5.7290869 -17.0846043  -3.9649587   4.9556866 -16.9856110  -5.2698016
 -16.3127155  10.8727493 -45.6621361 -15.9286404  11.4062395 -44.8822365
 -15.9153461  11.4009867 -46.4061852  34.4653931  -4.2342672   9.4036551
  34.4933052  -4.2194672   8.4119606  33.8178673  -4.9291139   9.5648270
  20.4662132  27.8234882  18.7989349  21.1157417  27.2656975  19.2276936
  19.6651134  27.6914444  19.3601246  20.8897629  -6.8322177 -29.0918674
  21.6939316  -7.1715231 -28.6969471  20.8792114  -5.9913421 -28.5285339
   6.8218241 -23.5405807  30.3730602   7.8062191 -23.7146015  30.3520222
   6.6361418 -23.9423943  31.2266808  33.5947151  -5.3189564 -26.8215523
  34.5512848  -5.2859702 -26.6260014  33.4286232  -4.3080177 -26.7988968
 -37.3900490 -15.2623806 -22.1161995 -37.7759399 -16.0657463 -21.7901268
 -36.7704926 -15.5800247 -22.7790318  22.3509426  21.1039333 -14.9230528
  23.0655708  21.7135124 -15.0743761  22.7608948  20.3448887 -14.4472198
 -13.6360521   9.8759928   1.1639962 -12.9037552  10.5286140   1.1666429
 -13.8287916   9.8670053   2.1610334   2.9978104  -1.1642783  41.2406349
   3.6457860  -1.0256974  40.5683899   2.5349662  -1.9699446  40.8568344
  -2.5035398  45.6951332   7.5874763  -3.0440428  46.1186714   8.2541361
  -3.1629670  45.1963615   7.0492983   3.4386122  32.5402069 -31.9681530
   4.3658957  32.7860374 -31.9860191   3.4262819  31.7125587 -31.4910660
  -3.8447263 -46.8150520  11.0001822  -4.6497641 -47.1880875  11.3595648
  -3.5529370 -46.3402977  11.8449450 -26.5117893  18.9702263 -17.9690342
 -26.7561245  18.5223255 -18.7870502 -25.9732933  19.7426300 -18.2848930
  39.0724716  17.3122444   3.3789961  39.5868111  18.1696854   3.4230859
  38.8714981  17.3215561   2.4230306   8.0417891 -11.2802219 -34.0735626
   8.8666267 -10.7275467 -34.0342560   7.4065313 -10.5868702 -34.2539062
 -20.3668919 -12.3684444  15.1024847 -20.0368748 -11.9474449  15.9040728
 -19.5148048 -12.7406979  14.7436113 -23.1736927  11.8609028   2.6744058
 -23.0933609  11.0145340   3.2661579 -23.8589821  12.3055763   3.2000239
  -8.4227600 -31.0561562   8.7154207  -8.4193821 -30.2953186   9.3300848
  -7.9350224 -31.7113018   9.2466125  26.4305725 -13.9167042 -21.2848377
  27.0531712 -13.7219391 -20.6269455  25.6088486 -14.0068865 -20.7757683
 -26.5273438  -9.9499454  11.5954494 -26.0531158 -10.7302599  11.2497692
 -26.6368713  -9.4885855  10.7021208 -30.0980339  -3.6709688 -24.1385784
 -30.8474445  -4.2005591 -23.7882748 -29.3867702  -4.2483110 -23.8310394
 -16.1165409  31.8561554  37.6063538 -15.1949177  32.0200348  37.2011414
 -16.6074886  32.2142448  36.7967186  36.5584030  -7.7940812  34.0447807
  36.3547287  -6.8365364  34.1990776  37.3238945  -7.8657827  34.7164268
  -5.3166876  -9.8508081  27.5329838  -4.4039283  -9.7614975  27.3469276
  -5.4376016 -10.8244057  27.3827610 -13.1134348 -11.2227535  42.1843834
 -12.7748842 -10.3307276  42.3446083 -14.0498333 -11.1677752  42.4204865
  40.5821304  26.5966167  -7.1284418  40.2153587  26.8880405  -7.9959002
  41.5124435  26.8807106  -7.1567225  19.0787773  26.6462612  13.9469423
  19.7929630  26.8745556  14.5520372  19.5325012  25.9820576  13.3530245
  -8.1164875 -41.4513435   7.6248412  -8.3954601 -40.6868896   8.2183552
  -7.2455630 -41.6119919   7.9765048  22.4682941 -34.1344833   4.6701045
  23.3141918 -33.6183624   4.5675459  22.3681240 -33.9983368   5.6493611
  15.8479567  35.4800072   3.3655515  16.7624416  35.3128624   3.4755740
  15.6440849  35.0490570   2.4850328  42.4169273  -8.4662704  19.3220310
  42.5120049  -7.9761853  18.4994984  43.3037910  -8.3652153  19.7091827
  42.3690109 -11.5023174   0.9032929  41.9445305 -12.2126446   1.3964132
  41.8603821 -11.4763575   0.0626656 -23.2846832  25.4588470 -31.5681725
 -22.3637371  25.7310638 -31.9467258 -23.0316086  24.4776783 -31.5330715
  -2.4157076 -47.9727974   2.4204302  -2.9676127 -48.5009422   1.8707857
  -3.0735600 -47.5564804   3.0228214   4.6352196  -6.4476972 -47.6188812
   5.5611334  -6.6486130 -47.2832298   4.8849330  -6.6704311 -48.5948105
 -15.7548828  25.7833366  41.2001343 -16.7208672  25.7302074  41.0068130
 -15.4442301  25.3529739  40.4307632  -0.6666459 -31.1228085  17.9954147
  -1.1743394 -31.9328976  18.0148182  -1.3823880 -30.4520416  17.9819813
 -31.2232475  12.7749329 -13.4831448 -30.3397102  13.1833363 -13.3319073
 -31.6818390  13.5456772 -13.9195395 -17.9234810 -15.4897423 -21.3168755
 -18.8165169 -15.6642618 -21.3975220 -17.4972057 -16.1148434 -21.9192390
 -44.5543251 -26.8706112  15.2842321 -44.0902786 -26.1428242  14.7818651
 -43.7080727 -27.4273129  15.4514236   9.6935396 -15.1636829 -37.5792122
   9.5169611 -14.6691828 -36.7401886  10.4592962 -15.7350893 -37.2827721
 -30.0372906 -12.1883574 -27.5931110 -30.0685158 -11.8546419 -28.5396996
 -29.1250916 -12.5064888 -27.5787659  -7.6657963 -28.3324604  19.5179310
  -8.2980366 -28.6314335  20.2281971  -6.9478245 -27.9225216  19.9991760
   7.7921209  19.0977211  24.1596050   6.8346324  19.3497353  24.3976727
   8.1129169  19.9568615  23.8324776  19.0874729   7.0731468  -4.6531048
  18.4544086   6.5803838  -5.1800356  19.7467136   6.3689985  -4.3922610
  -9.0130711   3.1736743 -17.4105968  -9.0837526   3.0979073 -16.4093418
  -9.9527369   3.2582242 -17.6969662   2.4400446  13.7803984  42.6862679
   3.2243423  13.2060957  42.9766808   2.8713624  14.6519489  42.7448692
 -27.4122906 -24.6325169  -6.6337109 -27.2900677 -25.1987038  -7.3768883
 -26.9819546 -25.1243572  -5.8985419 -38.0829506   8.6498203  -7.5899711
 -37.2733727   9.2168522  -7.5684552 -38.4789238   8.7937288  -8.4263592
   7.9466047 -11.7652397 -10.5936127   8.0100555 -10.9576597 -11.1255369
   8.3925972 -12.3766747 -11.2687559 -35.3382111  12.0944843 -11.1992302
 -34.4065933  11.9659433 -11.2719059 -35.6352768  11.4197607 -10.5572968
  28.2402649 -36.1120987 -22.8650417  28.2510490 -36.1783257 -23.8199863
  28.4681225 -37.0333672 -22.5992203 -12.6257429 -15.3235216  40.2943230
 -12.5397034 -14.5437298  40.8539581 -12.5378981 -14.9544163  39.3966866
  -8.1034021  13.8018141  25.7169266  -8.4380388  13.6708460  26.6077766
  -8.3629656  13.0015478  25.2455883   2.3737574  -8.9722729  38.4434242
   2.0002160  -8.5780420  37.6236877   1.5314752  -9.3059216  38.7965889
  20.5728397  25.2580376   5.2801003  20.3004169  24.9766026   6.1555715
  20.1078949  24.6558552   4.6385956  22.7515869  -7.4981608  33.7451286
  22.1421413  -7.4817715  33.0153999  23.4359722  -8.0731468  33.5364265
   4.8931088   7.5977526 -21.7395992   5.2048750   8.5185814 -21.7022667
   4.1843896   7.6271782 -21.0397739 -14.5047770  -3.3994234 -36.0175209
 -13.6593056  -3.2429547 -36.4624939 -15.0953264  -2.7636058 -36.3534203
   4.3254747 -20.5845909 -22.6986980   5.0440660 -21.2025394 -22.5932674
   3.9771392 -20.8418884 -23.5418358  40.7332115 -30.7664452 -13.6073151
  41.3805466 -30.8930206 -12.8444662  40.9881096 -29.7895546 -13.7344847
 -27.1656857   1.2477280  33.1225090 -27.5516758   1.1257921  34.0496521
 -26.5292206   1.9183725  33.2373924  28.5123539 -26.0418530  26.0233784
  28.3069344 -26.5613537  26.7922115  29.4537907 -25.7767239  26.2223854
  -0.5404257  38.2790756  16.6383724  -0.0036009  37.9769821  15.8925686
  -1.4202353  38.0219612  16.2895126 -35.6994858 -12.9699554  -5.6945524
 -35.8066483 -12.0938625  -5.1834865 -34.7245674 -13.0771999  -5.4524364
 -28.4120140   9.9770546  -1.0627645 -28.4432449   9.3389120  -0.3161236
 -28.9063225  10.7613869  -0.6623834  10.0905123 -26.5439587  32.5004807
  10.7230101 -27.1929417  32.7480354   9.4936342 -26.9732971  31.8801098
   4.4558687 -29.0671501 -35.0522652   4.5692306 -29.2265358 -34.1093864
   3.9744473 -28.2473202 -35.0100288  -5.9416103  -8.4698048 -24.1593132
  -5.9202318  -7.6283135 -23.7225075  -5.9022503  -9.0423832 -23.3706532
 -37.1349907 -24.9939938 -23.5433273 -36.9519615 -25.7365932 -24.1465416
 -37.5741959 -24.4039650 -24.1845016  -2.3932154 -17.2563744  26.2585487
  -1.9962846 -17.7776604  26.9722462  -2.9609284 -17.9427986  25.8357086
 -24.8194885 -28.0098095  14.1573734 -24.9551983 -27.0580387  14.0535460
 -23.8431683 -27.9887447  14.1983185 -13.2066040 -14.0615587  -2.4151824
 -13.7190189 -13.8716135  -3.2544026 -13.4204035 -13.1789932  -1.9921896
 -18.8834019   8.6714544  18.9763184 -18.2573547   9.0403070  18.3263741
 -18.5989952   7.7286887  18.9476128  11.0773945  20.6954498 -17.8433628
  10.8936157  20.2053070 -18.7608738  11.9300461  21.0457077 -18.0621281
  19.0390778  24.5885487 -32.2060242  18.5913925  25.4120827 -32.1979446
  19.9788609  24.8584023 -32.0420494 -19.0229797 -49.0473061   3.0645628
 -18.6096745 -48.1509552   3.2401512 -19.6907597 -49.0559082   3.7286568
 -13.9251575   3.2293332 -11.9883718 -14.1536388   3.5863612 -11.1147823
 -13.7169533   2.3001580 -11.8180742   1.2527809  -4.6939960  31.6565514
   1.1451110  -5.0750508  30.7381039   0.3486414  -4.4380507  31.8971615
 -12.0594339   9.8499050 -27.2932835 -12.1555281   9.0233898 -27.7968330
 -12.7638206   9.7833529 -26.6005325 -40.2181091  -3.1925230  -8.0874081
 -40.8685799  -3.8881805  -8.2531910 -40.6467056  -2.3656735  -8.4642973
  38.0236282  -7.8385596  -8.6914272  38.6302795  -7.9704862  -9.4507313
  38.2066422  -6.9677191  -8.3568754  10.8566523  -8.1828651  -5.3488302
  11.3711281  -7.5624981  -5.8679233  10.2023010  -8.5216732  -6.0290728
 -42.3316307  16.5482998 -28.3674698 -42.9149437  15.7540035 -28.1963692
 -41.8246002  16.5830517 -27.5143757  10.9501543  -2.8813951 -41.3749046
  11.4739151  -2.5026329 -42.1453972  11.5144539  -3.6109653 -41.1610222
   1.7842669  27.1300907  32.2642632   0.8349896  27.4097271  32.2823601
   1.6680490  26.2260971  31.9612789  23.5482883  -1.1554525 -16.6814804
  24.1045380  -0.5901793 -16.0686474  24.1210117  -1.8723700 -16.8913727
  23.2086906 -17.8500786 -35.3437271  23.7174416 -17.4544048 -36.1023407
  23.7886944 -18.6084404 -35.1486282 -31.3921146  10.5805702 -33.4582176
 -30.8390083   9.9336023 -34.0005150 -31.6701717  11.1272030 -34.2206230
  -2.2690127 -34.3073654   3.5234599  -1.7437329 -34.1507988   2.6852996
  -1.9784425 -33.5530891   4.0489955 -16.8443584  -9.4434185  40.6775169
 -17.0177708  -8.6368942  40.1446457 -16.7408714 -10.0828247  39.9846077
   2.6194608  24.3985157   1.6864806   2.7440019  25.1848660   1.1065944
   3.4882777  24.4189796   2.1426229   6.4148488 -28.3663464   4.2513280
   7.2022781 -28.8175716   3.8509634   5.6618962 -28.7528458   3.6471767
  41.0841026  -9.5314608  28.3086262  41.4003029 -10.3916855  27.9621868
  41.1749115  -8.9572124  27.4835606 -38.0253487   1.9808704  33.9796562
 -38.1769600   2.8541553  34.3264580 -38.7974014   1.9519190  33.3346405
  11.1922970 -34.5914803  -1.4679389  12.0576134 -34.9860077  -1.2461171
  11.1433887 -34.9764824  -2.3816087  22.8530025  30.1129551  21.6846104
  23.6168156  30.7215557  21.7416840  23.1449547  29.3295135  22.1795349
 -16.4128952  -5.4139619 -29.3584518 -16.5450611  -6.3713789 -29.0805588
 -17.4101200  -5.2537313 -29.4980259  -0.8198715 -15.3833733 -38.0682487
  -0.8091525 -14.4699135 -38.4214363  -0.8017537 -15.2213087 -37.1191711
 -13.5758419  -7.5541801 -21.9851456 -12.7048855  -7.2968297 -22.3279610
 -13.4588537  -7.4243913 -21.0250473   0.7454200 -25.2410088   5.7676997
   0.8904383 -26.2446022   5.9630866  -0.2546489 -25.2116604   5.6787367
  11.7893286  50.9064980  19.6865616  11.3499136  49.9969139  19.5402889
  11.3987379  51.3873329  18.9450493  20.5132046  -5.6364307  17.0657597
  20.0677204  -5.8724632  16.2225475  20.2499847  -6.3617883  17.6381626
  15.1864347  29.1953983  20.7864151  16.0492630  28.9202652  20.4521351
  15.3471146  29.8274574  21.4559269  13.5825891  -5.4272666  13.1063461
  13.0276871  -6.2073483  13.3330116  14.3612289  -5.5972791  13.6954546
 -17.3864632   7.6883454  10.1854668 -17.3349438   7.3007579   9.3179445
 -18.3770924   7.8113379  10.2611761  17.8861542 -20.5077362  22.5162411
  18.3907871 -20.3275337  23.3215027  17.5319061 -19.6370487  22.3476791
  33.9458885 -34.2469215 -21.3144474  33.9788132 -34.8550186 -22.0621910
  34.2641640 -34.7894897 -20.5950527  33.3505402  -3.2818010  -6.3929214
  32.8739052  -2.4493458  -6.0790744  32.8718987  -3.9274504  -5.7925396
  12.4623976  10.3713665  29.0480747  13.0990534  11.0617704  28.7892132
  11.8346691  10.9713964  29.5942974 -24.0432796   0.9880908 -10.7834101
 -24.3457909   1.3850269 -11.6547375 -24.1214943   0.0507470 -10.9821510
  35.8289490 -15.5612688   4.2819009  35.9276581 -15.0680933   5.1211543
  36.5137482 -15.1662245   3.7430434  -8.6638374 -19.3138065  -1.8180490
  -8.6342916 -18.6191311  -2.4169955  -8.9326077 -20.0416622  -2.3790305
  43.4879379  12.4288378  -4.6484742  44.2975349  12.9327860  -4.7907958
  43.6039619  12.0761948  -3.7590897 -32.6926727 -30.8781261 -16.9068680
 -33.0207214 -30.3911247 -16.1659946 -32.0074615 -31.4897938 -16.4703293
  16.2134895  10.8317327  20.1064758  16.5039463   9.9503460  19.7350941
  17.1011963  11.2681971  20.1564140   1.0223873 -16.0866165 -33.4956589
   1.9514377 -15.9891672 -33.6240616   0.8417466 -16.9883518 -33.8963203
 -43.1042709   5.0727229 -13.6628113 -42.8469048   4.3661928 -13.0530415
 -44.0971909   4.9463406 -13.6541548 -19.5516300 -33.7104340 -19.0028191
 -19.6662960 -34.5320549 -18.5545616 -18.6258488 -33.8668709 -19.4069653
  17.0682640  11.8524189 -15.2900944  17.4454861  11.7333441 -16.1321087
  16.0838299  11.9681835 -15.5181742 -15.7985716  -7.5794568  13.0834398
 -14.8615007  -7.8642564  12.9473019 -15.8997107  -7.6669502  14.0331240
  37.5633392  -0.1162657  33.1296692  37.2917213   0.3237458  32.2820740
  37.9019928   0.6651993  33.5899391 -24.2205620 -11.1134405 -31.3144474
 -23.6400490 -11.2396851 -32.0781860 -24.9717808 -10.6331978 -31.7063770
  24.9490528  16.0752335  -6.1441355  24.1704140  16.2853546  -6.7232690
  24.6518021  16.5403023  -5.3245039 -23.6837559 -23.3301945  -0.8229085
 -23.5299606 -23.9596786  -0.0818574 -23.6627045 -22.4606819  -0.3156856
   6.9830127 -24.1465187  41.6618690   6.7337179 -23.4895115  42.3677635
   7.4976587 -23.6139088  41.0648117 -16.5202408  -7.7231288  43.2177544
 -16.4614258  -7.9163675  42.2467804 -17.0678463  -6.9569631  43.2331467
  11.4117126 -25.0721722  -0.5730853  11.3148746 -25.9230137  -1.0801539
  11.4052401 -24.4737053  -1.2825240 -15.1250134 -21.6569004 -27.4013348
 -14.8897533 -21.9571972 -26.5502872 -14.4108839 -20.9859905 -27.5722771
   9.9650154 -10.7317028 -24.3618488  10.5429621  -9.9381866 -24.2056484
  10.6117182 -11.4487209 -24.3185406   7.9221749 -37.6598091   2.6405411
   8.4447784 -37.8282928   1.8221443   7.0337501 -38.0125771   2.1790645
  -4.0286565  26.3175545  20.9451313  -3.9477475  26.9117317  21.7022610
  -3.4361191  26.6806087  20.3050728 -12.3334017 -32.7599487  18.1067715
 -12.8309021 -32.1384926  17.4568119 -12.8304501 -32.4992828  18.8984509
  23.9674549  25.4484921 -16.6344910  24.7053699  25.8840771 -16.1502934
  23.3063850  25.4030304 -15.9568548  24.5406036 -31.5395412 -23.3981056
  23.8437996 -31.4502773 -22.7277031  25.0970421 -30.7669640 -23.2058125
   4.6611094  14.3186293   0.2392795   5.2745857  15.0200310  -0.1228511
   5.3245564  13.6160297   0.2917888 -40.8825226   9.2492867  10.6418724
 -41.0168266   9.6220436  11.5896645 -41.6931915   9.6483221  10.2752590
  -6.9202995 -34.8969193   3.7217195  -6.6994262 -35.2160339   4.5908985
  -6.1019182 -34.9086037   3.2142787   1.8548080 -34.8493614   2.1604874
   2.6776130 -34.8715439   2.6295886   1.6309133 -35.8249359   2.2323756
  11.7524624  31.8278255  22.1348438  10.8488512  32.2364464  22.2482319
  11.9470015  32.2352562  21.2446041 -34.2101860 -13.2325678  28.6074123
 -34.2808304 -12.5985670  27.8566742 -33.8177032 -14.0101395  28.1239777
   9.9989738   9.2383537 -14.0554657   9.6772528   9.4956961 -13.1670904
   9.9060583  10.0759144 -14.5896959  -8.5707226 -44.8900337  12.2479954
  -8.7051315 -45.1473846  13.1762991  -8.3255167 -43.9184952  12.4234886
 -29.7208138 -25.8249245  14.8804884 -29.2056122 -25.4506493  14.1781025
 -29.1943264 -26.4943218  15.3549576 -14.9512634   0.7098101 -45.6281281
 -15.1816072  -0.1095445 -45.1824303 -15.3160076   0.4645231 -46.5572166
 -30.7562809  19.1711807 -19.9136028 -30.2591610  18.9003410 -19.1348782
 -31.2351418  18.3157158 -20.1014519  -0.7269028 -10.6356354 -40.8452072
  -1.1005445 -10.0232239 -41.4783897  -0.2285742 -11.2203617 -41.4477921
  40.0960770   5.8175039  22.8627739  40.7877159   6.5481286  23.0275402
  40.1709023   5.7974234  21.8785610  27.7033749 -15.4603691  28.6707630
  27.3871021 -15.8635321  29.5049419  27.9172859 -14.5383015  28.9943981
  25.0733757  -1.7412643  12.8457088  25.7616920  -1.9927568  12.2130165
  25.5769539  -1.0549535  13.3537655  -7.2117867  -0.4515542 -43.4582634
  -6.3089604  -0.6699203 -43.8264771  -7.6375432  -1.3527695 -43.6127319
 -20.6938725  -3.3621070  28.4284458 -19.9879990  -3.0058899  27.7733898
 -20.0822277  -3.8705964  29.0290565 -31.4461021   7.8114309  -1.4087465
 -32.0397911   8.5298958  -1.2100521 -31.6370926   7.6616106  -2.3593402
  10.3318682 -14.4480038 -26.5176029  11.2235775 -14.3451157 -26.0400276
  10.6779337 -14.2455339 -27.4140129  -7.1474094  26.2675495 -33.8591652
  -7.4560380  26.1891270 -32.9472809  -6.7243571  27.1389732 -33.8732986
  17.5012474  40.3157196  -4.0841484  18.1529655  39.8363495  -4.6370425
  17.4786339  39.6913490  -3.3059309 -19.8135071  18.1949158  18.9969120
 -19.3683338  19.0054512  19.2573643 -19.2563705  17.9125004  18.2175350
  -8.2228413 -44.9202728   4.8609438  -8.7138309 -44.6453056   5.6718450
  -8.8578129 -45.5173264   4.4340205   3.8605711 -22.0802288   3.1282382
   2.9676676 -22.3069973   3.4813795   4.4118314 -22.6188679   3.7239180
 -20.6193504 -18.7809563  11.7454367 -21.0543232 -18.0110092  11.3776474
 -21.2632751 -19.0012627  12.4569931 -17.3440399   6.4198909 -17.1836128
 -18.2617512   5.9438157 -17.0695667 -16.9121304   5.8940063 -16.5292568
  36.4589462  14.9610882 -17.5704498  35.6927223  15.3520708 -18.0837040
  36.2046242  15.3722878 -16.6925182  -8.2616339  16.7946281 -37.6250648
  -7.8277416  17.6837788 -37.7851982  -7.5041986  16.3366890 -37.1985207
   8.0764656  -4.8960772  49.1822548   7.7881489  -4.3595257  49.9721565
   7.7138867  -4.3490753  48.4884644  -3.5575943  43.7022438 -12.4647532
  -3.1688671  43.4589272 -11.6081686  -4.0635061  44.5537872 -12.2144709
   7.2926998  24.9999275  33.6817093   6.4089618  24.9721584  33.7549896
   7.5277157  25.5138683  32.8517075   8.2942562 -27.3062019 -10.2365866
   8.8137045 -27.3923988 -11.0402021   8.9823217 -27.5638065  -9.5473671
 -17.0208473  -3.6261103   1.0525863 -16.8152924  -2.6996496   0.8289877
 -17.4996090  -3.5490146   1.8614148  13.1704340 -13.4049873  29.9843102
  13.8117599 -12.8148499  29.4970970  13.8555393 -13.8551035  30.5818481
 -31.2135620 -25.4041004   9.4086542 -31.4032192 -25.9465580  10.2029676
 -31.3587132 -26.0335636   8.6785679   6.9218698 -40.5527153 -14.3334732
   6.9856806 -39.6008339 -14.1201572   6.3252878 -40.5939560 -15.0700331
  16.3864250  39.6353493   0.9883144  15.4367304  39.7542686   1.0947655
  16.5072021  38.6422501   1.0503628  31.7765369  35.7273178  10.2427654
  31.0099754  35.3001022  10.6986237  31.8592567  35.1027985   9.4825211
  20.1801128  37.8547859 -10.6105738  20.8733788  37.1488800 -10.6580257
  19.5079842  37.4358711 -10.0083303  24.7951374   6.7108684   7.6379652
  25.3419609   5.9376731   7.6118608  25.1044579   7.1905208   6.8173475
 -25.5131016  10.1479530  -7.5299950 -26.3292141  10.2771320  -8.1296396
 -24.8411083  10.6263132  -8.0375214  -7.9748011   0.8261244  48.5311317
  -7.6558661   1.7075907  48.9133568  -7.4312363   0.7985367  47.7291718
 -41.3045158  -3.8975089   0.8757544 -41.7387619  -4.3914995   1.6649907
 -40.7270813  -3.3385971   1.4354256  16.2160378  38.2960014 -22.7116928
  16.4254837  38.4731407 -21.8074570  16.1073666  37.3470993 -22.6906033
 -36.7305717 -34.4819031  -9.9807339 -35.8278427 -34.6100731 -10.2770052
 -37.1740379 -34.0775604 -10.7562542  18.0012627  38.6324425  16.0478363
  18.2599411  38.7041321  17.0231190  17.0756779  39.0245895  16.0526676
  10.5294304 -15.4020538  26.6166821  10.5977106 -14.8067713  27.4209194
  10.3495741 -14.8276997  25.9220600  21.8608608  -4.1163893  35.3483086
  21.8141193  -4.9781942  35.8131371  21.1977024  -3.5946615  35.8345566
  28.0055389  22.8717022  11.9350891  27.1883945  23.2293053  11.5580015
  28.5813389  23.0341187  11.1327400  19.3469334 -27.0453453 -23.0732536
  18.8272896 -27.2488213 -22.2987671  18.6432858 -26.8195972 -23.6957550
  12.4810286   5.0316787   5.6063013  11.7639151   4.5485616   6.0411587
  12.9905081   5.2977762   6.4155564 -26.6448307 -26.9235611 -26.0182228
 -27.5586720 -26.7575302 -26.2759991 -26.6250420 -26.4202557 -25.1495056
 -11.0881147 -45.7960205  11.9625149 -10.8670025 -46.7084045  11.7773991
 -10.2209969 -45.3931198  12.0788317 -20.6970310 -14.3787937 -35.5000267
 -21.3443832 -15.0845900 -35.4940338 -20.9597473 -13.8819752 -34.7194519
  12.4956102  11.2154226 -12.9327354  13.4474926  11.1772480 -12.9455948
  12.2702875  11.6583862 -12.1462259  15.5225592 -21.9328156  41.3719521
  14.6627655 -21.4862843  41.6230469  15.7457752 -21.4509411  40.5874863
  -8.8025846   2.8260045  24.3564491  -8.1217308   2.7016838  23.6752453
  -8.8644114   1.8536375  24.6157913  14.8529234  42.3547935  -9.3666401
  15.4609556  42.1961594 -10.1217470  14.3171473  41.4896355  -9.4271297
 -17.2322655  18.5487366  24.4113178 -16.3831387  18.7763348  24.8824234
 -16.8149300  18.2527180  23.5530300  12.4532003   1.9103560  45.9128532
  11.5260811   2.0534916  45.9100075  12.8161745   2.6453497  46.4429169
  -7.1539240  34.2841148  10.7992611  -6.4136505  33.9613762  10.2088776
  -7.5829606  33.3821983  10.9496565 -23.2962742  25.2765656 -13.0396109
 -22.6945267  26.0305481 -13.1240292 -23.6571388  25.3182545 -13.9789667
 -21.9056587  19.5814152 -29.4120502 -21.3557777  18.7700787 -29.4996128
 -22.7642326  19.2229176 -29.7376251   5.5318189 -17.1673908   3.6134841
   4.6128860 -17.3343220   3.8767066   5.4731951 -17.2082539   2.6412570
  19.9318771   5.3080091 -16.1565609  19.6950665   6.2435565 -15.7939577
  19.6974659   5.4596825 -17.0644016 -32.0783691  14.9683256  -6.1213684
 -31.5577488  14.9669504  -5.3226280 -32.6519890  15.7376213  -6.0199285
  31.8441792  24.1805096 -18.1975536  31.3791142  24.4577885 -17.3884201
  31.0712948  23.7825985 -18.6844997 -15.2203722  18.2011623   3.1816809
 -15.7307911  17.9135151   3.9999299 -14.3453407  17.7605667   3.3455956
  18.8083305 -18.9011650  29.6428337  18.2151299 -19.5885029  29.3375206
  18.9630814 -19.1951294  30.5614147  19.4127235  22.6404495  30.0140419
  19.8910828  23.4741879  30.2325420  18.5158310  22.8633595  30.3906574
   6.7390900  -0.5121766   4.8981628   7.5171647  -0.2633870   4.3201079
   6.6659832   0.3004391   5.4248323 -11.8212643  -3.2964823 -47.8030777
 -11.1830053  -2.7632394 -47.3021278 -12.5277567  -2.6217518 -47.9229469
  23.1980400  19.2847919   9.4132833  22.3596725  19.0242653   9.8203020
  23.6136169  18.4621696   9.2255592  -1.3557289  23.2651119  18.8332405
  -1.1993728  22.8117638  19.7440300  -2.1995745  23.7692719  19.1018448
  22.9994373 -22.4964066 -19.5371819  23.1410332 -23.4711628 -19.5530758
  22.6873932 -22.4255981 -20.4828320 -35.8440247 -12.4233570  15.6946135
 -35.7052956 -11.5317774  15.3087006 -34.9352951 -12.7320223  15.9148121
 -21.6658039 -37.0214882 -22.9816284 -21.0623913 -36.4630203 -22.4705429
 -22.5052128 -36.5491409 -22.8941650 -17.5448418 -28.6542187  15.2827778
 -18.4236240 -28.2611198  15.5041094 -17.3128910 -29.0630150  16.1428223
 -15.8095751  39.8282280  -0.4962099 -16.4263744  39.1544762  -0.6498539
 -15.5084267  39.6426392   0.3986293  -1.2213085  36.6225471  13.1611195
  -0.6810871  36.0142441  12.6162271  -1.7241938  37.0382729  12.4020815
 -29.4113007  35.3248672   5.4086499 -30.0393391  35.3573227   6.1743445
 -29.9435329  35.7499580   4.7678437   0.0329354  -9.9143219 -18.8393478
  -0.6031897  -9.8907099 -19.6227665   0.6800818 -10.4823580 -19.1466713
  -6.0401082  40.8767281  17.8825951  -5.9406557  39.9907227  17.5012817
  -5.5971198  40.8030319  18.7182808 -22.4757633  -9.4178829 -14.2372208
 -23.2813129  -9.9042711 -14.1020765 -21.9569607  -9.7270422 -13.4378872
 -18.8560066   6.1153622 -48.4363556 -19.2799416   6.9800858 -48.7382317
 -19.3302479   6.0706306 -47.5883789 -39.7864876 -18.8681068 -13.2376432
 -39.9079018 -19.7332382 -13.6206760 -40.7053337 -18.5755692 -13.0752745
  -8.8781996 -33.7462769   5.6569643  -8.4153605 -33.9318733   4.8318901
  -8.5736732 -34.4781723   6.2800789  -8.6879416  25.2173786 -23.5429897
  -9.1735001  25.1044044 -22.7240849  -9.4367685  25.2731838 -24.1386166
   6.5256138  -1.1416985 -19.2812138   5.6291013  -0.8379225 -19.5151806
   7.0551801  -0.3470628 -19.6305771  -1.2433163   7.0948892 -35.6351891
  -1.4945184   6.1430821 -35.3093567  -0.9412392   7.4624767 -34.7801247
  30.2482452  21.0220032 -10.5414467  30.8598175  20.9817524 -11.2612133
  30.6698208  20.3804569  -9.9418526  15.5720310 -27.2061520  32.4427719
  15.4498482 -28.1592674  32.4106674  15.7744417 -27.0626450  31.5032806
  -8.5905924 -41.8997078  15.5841427  -8.7004280 -42.7149200  16.0743637
  -7.7416658 -41.5409737  15.8951845 -14.5171156  33.1966324  13.1868887
 -13.9842472  33.9322357  13.4644136 -13.9565115  32.4307976  13.3982935
 -27.1831818   7.5244799  35.6024208 -27.8171844   6.7395868  35.5369186
 -26.3732567   7.1139655  35.9836578 -27.5941277 -43.0211525   8.2329359
 -27.4162273 -42.0258942   8.1299686 -27.8223724 -43.0786858   9.1625071
  17.0292912 -12.8006687 -47.3782387  16.8681602 -13.6690884 -47.7816010
  16.9105873 -13.0591354 -46.4456749 -25.5289059   1.3236400 -33.5720825
 -24.5823917   1.2137425 -33.2002106 -25.4242363   2.0748017 -34.1914749
 -33.4705696   0.9767092  34.9087143 -33.4406509   0.1445510  35.4340553
 -32.5242958   1.2494400  35.0621643  -3.3855011 -39.1729355  19.0411530
  -2.5673747 -38.6655502  19.0328045  -3.3978305 -39.4249420  18.0898914
   6.8401361  11.9311895  -6.1083159   7.0543237  11.4577351  -6.9639020
   6.1251063  11.3541679  -5.8129883 -32.5215912  -0.7259860  24.8015633
 -32.4177017  -0.5996124  25.7660446 -32.4311676  -1.7157387  24.8178310
 -40.2062874  29.8124371   9.6678667 -39.9165840  30.1735020  10.4879942
 -40.8430367  30.4106808   9.3867760 -37.8227005  21.8220425 -25.6293316
 -36.9695930  21.9983788 -25.1492081 -37.6131516  22.3131790 -26.4789143
  37.1780434  -7.4071536  31.3013668  36.9435196  -7.8038287  32.1468925
  37.6496468  -8.0849714  30.8374405 -42.6424446  11.0940018   6.5601444
 -43.4100571  11.7404032   6.6608500 -42.2028694  11.2752914   7.4247422
   0.7575890  -2.3470109 -17.2371731   1.6836278  -2.7470772 -17.2230606
   0.3750741  -2.8087370 -18.0125504 -39.7413368  18.0098343 -11.0266619
 -39.9743271  18.8427944 -11.3612919 -39.4237709  17.5071621 -11.8140574
  16.5020828   9.8112640  35.1285553  16.4301529  10.5359640  35.8643188
  15.9663563  10.2668362  34.4218330 -11.2866707 -19.1469517  -4.5135007
 -11.0169182 -18.8878536  -5.4309998 -11.7810392 -19.9599152  -4.6913314
 -25.0934353 -16.3557606 -25.1969776 -25.9098759 -15.7780800 -25.3557205
 -25.4953003 -17.1950340 -25.3823738 -12.6533794  14.6110630  38.8477249
 -12.6872911  15.4309988  38.3445091 -13.5883198  14.5970945  39.2031212
 -23.7738266 -13.0992441   0.2820199 -24.6804123 -13.0281754  -0.0525256
 -23.8899174 -12.7821465   1.2095433 -42.9132767   7.3802605  -6.3563199
 -43.0245399   8.3754749  -6.4634228 -43.7837906   7.1047797  -6.0893154
 -31.9833965 -11.8226738   6.5734410 -31.1022015 -11.6596489   6.9603395
 -32.4507942 -11.8456554   7.4125438  34.9671249  18.1866341 -18.3920650
  34.1022797  17.7531185 -18.7173347  34.5376205  19.0334511 -18.0235786
 -17.6387634   3.6005337  38.8000946 -16.7434673   3.6405239  39.1945915
 -17.4532547   3.1396248  37.9265099 -41.0344315  -5.2598329  -9.6471252
 -40.1281624  -4.9624138  -9.9463148 -41.4832153  -5.3609433 -10.5074396
 -26.6754093  -4.2273812 -25.5181236 -26.7444878  -5.2272468 -25.4060268
 -25.6982365  -4.1331072 -25.1579952 -16.0196342  33.1470947 -37.8479996
 -15.8583479  34.0998878 -37.8504791 -15.5634108  32.8125496 -38.6390152
  27.4862080   3.7220790   3.2349405  27.9690838   3.6063364   4.0029836
  27.8951645   4.4806743   2.7459671 -30.4632740 -37.5840988  16.0305290
 -30.6495495 -38.5427971  15.7993708 -30.5141735 -37.6478615  16.9764061
  16.6687431  -4.0793538 -39.2006607  16.1443806  -3.5086458 -38.6228142
  16.6662846  -3.4753368 -40.0049858  30.8028145  -9.9498577  -0.6565632
  31.4418030  -9.6688757  -1.2336948  31.2466049  -9.9535818   0.2497494
  13.2335863 -37.0872383  13.2901478  12.2761183 -37.3515663  13.2295694
  13.2334642 -36.5118179  14.0855837  28.4057007  40.1665878  10.5154705
  27.5484009  40.1835251  11.0127487  28.1660557  39.3991089   9.9207602
 -11.1925373 -22.6387138 -19.4064026 -11.0276594 -22.1177845 -20.2393303
 -10.5929365 -23.4344349 -19.5900898 -17.7669678  -1.2024069 -43.2814255
 -18.0432587  -0.5761685 -42.6169090 -17.7278137  -2.0515714 -42.7074547
   6.2226624   1.5984164  28.0130424   5.9050660   1.9438031  28.8802662
   5.7618589   0.6989806  28.0484886  21.0156059 -18.4355030   7.6482825
  20.5465069 -18.6313953   6.8351121  21.9099884 -18.1566830   7.3893137
   4.9850655  27.8646526 -15.1658945   5.6118460  27.8287430 -14.4058580
   5.5420184  27.3858166 -15.8246794 -30.3164730  26.8386021 -26.6831417
 -30.8809547  26.0004654 -26.7333412 -31.0254822  27.3974648 -26.2291336
 -32.1529007 -13.7118731 -26.9430523 -32.3228912 -14.1489773 -27.8327808
 -31.4281616 -13.0975771 -27.2210159  35.5713158 -29.7817993  -2.9533193
  34.6541252 -29.6737480  -3.2833540  35.9724197 -29.1023159  -3.4381268
   5.8776741  19.8874779  15.6251755   5.2905345  19.5823536  14.8922300
   6.7728238  19.6451473  15.2635860  41.2987595  24.7438736  15.6880312
  41.8652306  24.1911564  16.2165298  41.5844879  24.4495640  14.8046122
 -19.2826366   1.1596720  13.2916069 -18.4020042   1.5615765  13.5102262
 -19.6370201   1.1941338  14.2030640 -27.4782963   9.7972221  40.3978691
 -26.6524143  10.1462154  40.7623825 -27.3027515   9.8752737  39.4104691
  13.9572897   4.2825141  -4.5747080  13.8910103   3.9618556  -5.5057197
  13.5737543   5.2121611  -4.6979303  30.7596092 -13.6008492  -1.5026370
  29.9143677 -13.1043282  -1.5676283  31.2093315 -13.3104763  -2.3413234
  -2.2163186 -18.6467133   3.1244428  -1.3587698 -18.5885410   2.6364181
  -2.8604019 -18.4695759   2.4076631  34.2201805 -34.4257927  -1.9547420
  34.0800705 -34.8448868  -2.8088465  33.6315346 -33.6570091  -1.9507269
 -20.8916206 -17.3525734 -13.3072557 -20.5570736 -17.0026894 -12.4486103
 -20.1606083 -17.0127659 -13.8915977  39.5674438  13.1835861 -21.8083324
  39.3874817  13.4197969 -22.7432709  38.7927704  12.6555948 -21.6145668
  -3.3052473  45.7941551   1.8033724  -2.8305614  45.9406853   2.6660564
  -4.1044588  45.3147163   2.0523536 -39.8320236   9.1711617 -29.0938492
 -39.6333008  10.1182318 -28.9304905 -40.2459221   9.0325394 -28.1652012
 -28.9508591 -26.0797920  -3.5016711 -28.4368668 -26.8776722  -3.3475680
 -28.5404797 -25.7313137  -4.2946715 -23.3174362  -4.1471028  36.3318825
 -24.2681847  -4.2346721  36.3372307 -23.2009315  -3.4587219  37.0555496
 -18.4115505   8.6636925 -13.8687840 -18.1551304   8.5927267 -12.9115105
 -18.4859295   9.6719360 -13.9126835 -14.1337318  18.0709019 -36.0036163
 -14.7588015  17.3420715 -36.3582001 -13.7296848  18.2680092 -36.8974190
  19.7944756   2.0312343  44.2026291  19.7797890   2.8275237  44.7754631
  19.2675304   1.4156542  44.6645584  35.9035225 -20.7501450  24.2259998
  35.8813744 -20.9880543  23.3049049  35.1281548 -20.2358608  24.3759747
 -13.0900574  25.7668591  -3.7717106 -12.1023722  25.9702206  -3.7982020
 -13.1079168  25.2004204  -4.5870852   0.5917075 -29.1616592  16.6731052
   0.3215592 -29.9394188  17.2826271   1.4728959 -29.5187321  16.3895588
  44.2049179  30.6496181   2.8832569  44.0230331  29.7287407   2.7381482
  43.3355217  31.0291595   2.6500776  12.2238731 -41.4755173  15.7061949
  11.3945808 -41.9008179  15.5288954  12.8388281 -42.1087189  15.2999697
  10.9272947   2.1149895 -21.5566978  11.4468956   1.8765287 -20.7397594
  11.3706865   2.7679937 -22.0188141 -29.9312496  23.9641819  28.2305145
 -29.8798161  23.5806179  29.0951004 -30.5903587  24.6555729  28.4272118
  35.5601654  17.4641075  -8.2144699  35.5332832  17.1573410  -9.1241446
  34.8186417  16.8760681  -7.8591046  29.5645962  -7.5018644  18.5612526
  29.8754120  -8.2578239  18.0910892  29.4530582  -7.6943116  19.4993229
  29.7076473  34.4867439  11.8134890  29.1533203  33.9052696  11.2105875
  29.1128788  34.4995880  12.5373917  33.6138115  15.4995136 -25.0322380
  33.9730339  14.8020563 -24.5008945  34.4485054  15.7997675 -25.5111389
  24.2476864  -7.5163822 -38.8667336  24.8815441  -8.0623693 -38.3580627
  24.0202045  -6.8721104 -38.1848984  -3.0555682  -9.8751831 -38.3257942
  -3.3949571  -9.8494577 -39.2456627  -3.6964228 -10.5624228 -38.0187035
  20.7577419  28.3448200  12.5095072  20.3299923  28.7318077  11.7370749
  19.9504261  28.2141285  13.1024113  32.8970604   9.1612177 -19.9564762
  32.4543304   8.9993486 -19.1175060  32.1547203   9.1277237 -20.6202068
   2.3856101 -33.7442131 -34.8496513   1.9520774 -33.8574715 -35.7563286
   1.9423046 -34.5271492 -34.4078865  31.8711281  14.4544554  16.1779270
  32.2517204  15.1673412  16.6444798  30.9043217  14.6295614  16.2167377
 -31.7268467  -7.5243459  30.3137074 -32.3587952  -8.0013885  30.9518242
 -30.9583511  -7.5249100  30.8450356  25.4857216  42.2418442  -4.9094791
  25.9773941  42.9910126  -5.3767219  25.6125507  42.5745010  -3.9845884
  13.3961134 -38.3942528 -13.2438622  13.4688950 -39.3538361 -13.2371607
  13.7566853 -38.0957680 -14.0722809  23.8162251  31.8541851  -8.5002508
  24.5713615  31.8786087  -9.1862183  24.1069813  32.6184616  -7.9813809
  30.3349991  -9.6628733 -28.3689251  29.7184868 -10.3588457 -28.5317192
  30.9784393 -10.1424847 -27.8450451  29.7574387   3.7661254  -2.1525245
  30.1169357   4.6813860  -2.2919507  30.6179008   3.3067114  -1.9876617
  -4.0071197   7.0265260   0.2822912  -5.0086479   7.0626273   0.1203280
  -3.8260562   6.5486970  -0.5848113  16.0551319  15.3923292  19.0250072
  16.5271626  15.3197327  19.8816662  15.1477251  15.6025724  19.3404102
   9.0572586  16.4155064  34.9653358   9.3743496  16.2261162  33.9873161
   8.1368713  16.1310272  34.8203049  41.8920097  12.3354282  12.4377241
  42.1716957  13.0799713  11.9206696  41.3743858  11.8506699  11.7361317
   8.4960871   4.6367741 -45.3731575   9.4160147   4.7543387 -45.6323128
   8.0232077   4.7419596 -46.2087860  10.4088783 -21.4605503  -7.1993470
  10.2593145 -21.0754662  -6.2634096  10.2273159 -22.4182167  -6.9525528
  25.8253384   7.0239320 -10.5197468  25.1327267   7.4640341  -9.9179678
  25.2599373   6.7892990 -11.2958860  17.1046181 -14.0119972  -1.8146702
  16.2050762 -13.6866541  -1.4924183  17.6535168 -13.3152199  -1.3332437
  -6.3145895  -4.3419485  24.2157440  -7.2018962  -4.6876278  24.0508766
  -6.4821587  -3.3791201  24.3068066  30.9990635  -9.0394306  10.4731216
  30.7285004  -9.6561203   9.8268890  30.2275238  -8.4577456  10.5244608
   6.1535759  40.0576820 -15.0434389   6.5921106  39.4382095 -15.6400528
   5.3169789  40.2653809 -15.5201263  29.0188065 -14.6609974  -9.1813564
  28.3850651 -13.9371853  -9.0734310  29.6942654 -14.1882296  -9.6739683
  12.1329117   9.2252369 -10.4229860  13.0527592   9.5965538 -10.4490938
  11.6264238   9.8907871  -9.9854670 -19.5919247 -19.2760620  21.4472446
 -18.9889812 -19.6021938  22.1902542 -18.9630146 -19.1123943  20.7888527
  12.6520281 -21.9947147   0.1978585  12.2374735 -21.5353317   0.9331451
  13.3837175 -21.3241558  -0.0060063  21.3273163  33.6170235  -9.4634075
  20.5075245  33.1285667  -9.7928429  21.9904175  33.1112633 -10.0110092
  12.9551334 -22.0477104  11.6936712  13.3757534 -22.4235573  12.5454216
  12.0463610 -22.0466423  11.9249010 -23.5049171   7.4533367  28.3686962
 -22.7339096   7.2415929  28.9215240 -23.2363491   7.1390319  27.5069733
 -35.0175591   1.5128052 -30.4554482 -34.0709419   1.1960920 -30.3210354
 -35.2962952   0.8592172 -31.0780602 -41.1377068   8.2600327  25.1336842
 -41.9987450   8.4075003  25.5985832 -41.1649437   9.0260515  24.5166550
   8.5093222 -38.5654564  -2.7478476   8.0965719 -37.7546806  -3.0804801
   7.8400006 -39.2425423  -3.0076475 -43.8639984  15.8676977 -21.0402279
 -44.5410233  15.2494621 -20.7100506 -43.2205887  15.2547884 -21.3999329
   8.4924831  -3.3002989   2.6470258   8.3645353  -3.8873100   3.4547622
   8.9593086  -4.0076785   2.1132891 -10.2653275  17.9461708  22.6982498
 -10.1915131  18.9503040  22.6510487  -9.3532696  17.6744156  22.5553608
  23.6608257  11.6615238  36.6441574  24.5485249  11.5980101  36.2031364
  23.1596889  10.9574690  36.0946121 -33.0052948  25.1133633 -10.0196877
 -33.6300316  24.3325500 -10.0694265 -32.1837502  24.6432190  -9.7450714
  -9.3086500 -11.1311789 -15.6741571 -10.2161627 -11.4505348 -15.8121138
  -8.9395981 -11.8337240 -15.1296539 -18.2448330   7.9478192 -41.3124123
 -17.9488373   7.8737822 -40.3491859 -19.2034187   7.9864545 -41.2145500
  12.8726120 -39.1066475  34.6552086  12.9892635 -38.1914902  34.2367477
  12.4310884 -39.5797157  33.9297562  31.5202866  -3.9940619  37.7130775
  31.4943352  -4.4569254  38.5741043  31.5932465  -4.8342977  37.1514511
 -15.6322603   1.1874771  11.3527145 -15.0739202   1.0677021  12.1811438
 -16.5002308   1.2929313  11.7734509  33.8431282  -3.3275754 -29.5654202
  33.8697433  -4.0348835 -30.2595558  34.4512100  -2.6809521 -30.0139675
 -42.4685631  -1.7321218  19.2818222 -42.7120972  -2.6103408  18.8644199
 -42.0192223  -2.0504925  20.0808277   3.2798457  17.6716061   5.3035955
   2.3964987  17.4872417   5.7458162   3.7329736  18.0366497   6.0695376
  33.2094269  11.5554686  21.2027721  33.6503181  10.8702288  21.7858028
  33.9836159  12.1774101  21.1725101   3.0496938 -14.6931219 -43.5128288
   2.2048206 -14.2410173 -43.1983299   3.6923399 -14.1036587 -43.0974312
   1.2520835 -21.9365768 -35.4636688   1.2714660 -21.3146019 -36.2122612
   2.0502324 -21.6453533 -34.9471588 -36.0720406 -31.9624004 -17.0541420
 -36.0106506 -30.9971008 -17.1294384 -35.2797775 -32.2362366 -17.6219292
  24.5005379  -8.5273638  45.7868614  24.1573086  -9.4283648  45.6740990
  24.6458206  -8.3136311  44.8107796  15.4800968  47.8763962  12.4548225
  15.3698883  47.7120819  11.4797277  16.3974552  47.5027351  12.5459738
  35.0983467  -7.9644351  14.3692932  35.1170387  -7.7213764  15.3291197
  35.5673790  -8.8026218  14.3945026  36.6923447 -22.2478619  29.7757111
  35.7591019 -22.3921890  29.6412373  37.0513687 -23.1843491  29.6688328
  35.3991127   3.9628267 -13.1545734  35.5213966   3.0229490 -12.7722950
  34.8396950   4.3604813 -12.5197401  10.2195864  35.4160042  26.2889442
   9.9597092  36.3614082  26.4832020   9.3683987  34.9662170  26.3862343
 -24.4370804 -35.8600235  19.7908840 -23.9725437 -36.2672729  19.0717392
 -23.8281898 -35.2311325  20.1240463  16.4120770  39.1120720 -20.0480843
  15.5391769  39.5733948 -20.3372707  16.0695381  38.7155914 -19.2074680
 -15.2784386   9.2524681  14.2539291 -14.5673428   8.5948896  14.2244263
 -15.4712248   9.3654890  13.2344437  40.8004761  27.4335327   6.3647456
  41.3277397  28.2613010   6.0706239  41.4564629  26.7765121   5.9138837
 -39.2035217 -29.4245892  20.8567772 -38.4292984 -29.4999905  20.2842216
 -38.7567863 -28.8910732  21.5723534   2.8497498 -27.9983253 -10.6149645
   3.6912882 -28.2519970 -11.0233908   3.0858274 -27.9326687  -9.6856585
   1.5388530  24.5099716  31.0323315   1.7475077  25.2080784  30.3879852
   0.8889955  24.0078011  30.5673046   6.4270787 -42.8480034   1.0645460
   5.7114773 -42.5277405   1.6607282   6.5122261 -42.1196365   0.4699340
 -32.0916481   5.8380127  31.6914616 -31.2215900   6.1707959  31.9103317
 -32.2509346   5.1103063  32.3363647 -25.7567883  26.3059177  29.4194965
 -25.0802345  25.9909210  28.8164883 -25.2872467  26.3587666  30.2659779
  -0.9302191  -9.4196882  -9.8253613  -1.3232787 -10.1442642 -10.3790922
  -1.5852555  -8.7114754  -9.9939804 -36.2038765  -6.3739386   5.0413861
 -36.3009987  -5.5460124   4.4723105 -35.3885956  -6.7422199   4.5861912
   5.0563297  -8.8832588  21.0451031   4.1035709  -8.7009087  21.1675053
   5.0620065  -9.8692722  21.1485119   0.0157622  39.3041649  -9.5167236
  -0.9583207  39.3684311  -9.6784878   0.3668014  40.0981026  -9.9107838
  10.6700640  16.0794868  37.0306969  11.4941730  16.3908958  36.6575127
  10.1068621  16.0719490  36.2367401  16.5740471 -26.5392838 -42.1072655
  16.2930470 -26.2830830 -43.0486298  16.7359447 -27.4955921 -42.2484665
   7.0531144 -11.4746122  44.0100670   6.7448835 -12.4323540  43.9564209
   7.8094754 -11.5348310  43.3571777  35.7496986  32.3076553   8.3891220
  36.0994530  32.4230347   9.2694550  36.3304176  31.5611362   8.1129045
 -34.1267891 -23.3165627  24.3218403 -34.6806602 -22.5516720  24.6132965
 -34.7660141 -23.7025051  23.6978226 -10.0228014  36.6057854  -5.8489499
 -10.4023380  37.4844666  -6.0054555  -9.5155239  36.4072533  -6.6350980
  -6.0920973   2.8928726 -34.5624352  -6.5155101   2.1099267 -34.1926041
  -6.2089577   2.6230886 -35.5098305   2.0547805 -11.8489819 -45.1175385
   3.0871089 -11.8220530 -45.1313591   1.9921287 -12.3688946 -45.9539757
  22.6974792 -11.1324501  39.1549530  22.1611061 -10.4558525  39.5405846
  22.2410202 -11.2701921  38.3241081  30.0771961 -17.7442017  -5.7743807
  29.2380943 -18.2708435  -5.7315388  30.7108841 -18.4509315  -5.6291351
  15.9747105  14.0590725  27.0955315  16.9472332  13.9959316  26.8192959
  16.0033894  14.9463987  27.4693470 -21.1832256  11.5224771 -45.9340248
 -21.4668446  11.2182322 -46.8509598 -20.4909191  10.7393045 -45.8475151
  43.5441437 -16.0980072 -17.6781139  43.0419273 -15.2996998 -17.6334400
  43.6264954 -16.2756767 -18.6526394 -32.7835655  22.4094906 -13.7088146
 -32.5620880  21.7561111 -14.4466333 -32.1903229  23.1192646 -14.0346670
  16.4687290  38.9338112  20.7332401  15.8002100  39.3790970  21.3417721
  17.0909328  39.7411041  20.6021461  -7.8307133  14.0496140 -24.3279858
  -7.0862417  13.9198227 -23.7156830  -7.4108887  13.8621140 -25.1806030
  22.2306480  26.9060860  24.6714325  23.0512390  27.3556499  24.5719128
  22.3904648  26.3322811  25.4712276 -43.4330025   3.4255090  -4.5084915
 -44.0962410   3.5485404  -3.7972367 -43.8413010   2.8810575  -5.1688771
 -22.1230049  16.4550571 -10.2127895 -22.5397911  16.8586941 -11.0189857
 -22.5696220  17.1558533  -9.5536842  -5.8563466  18.3051491  40.4335098
  -5.1660309  17.6002769  40.4455299  -6.6377788  17.8821335  40.0616608
   6.6201873  39.5601006  22.8577957   5.7308145  39.7585602  22.5148659
   6.8489375  40.4339485  23.2899113 -22.6144466   2.2907012  32.6364899
 -22.5719852   3.2848003  32.7476768 -23.0496922   2.3072278  31.7170677
  23.4395771  -9.5421476  -1.9202133  24.2264004  -9.5285387  -2.5394664
  23.9185028  -9.3021803  -1.1092945  40.3981819 -12.7436876  29.2658043
  41.3857498 -12.8213987  28.9891434  40.0357475 -12.7920723  28.3531075
 -37.9383621  24.0638332   8.7578077 -38.1840782  24.8814049   9.2480602
 -38.2111969  24.2556076   7.8250742  22.6699104 -24.2422504  31.0203075
  21.7297173 -24.2153702  31.3662853  22.5805779 -25.0339642  30.4234276
 -10.0194750 -14.7752390  19.1327477 -10.5103168 -14.1391888  19.6408978
 -10.3059559 -15.6728191  19.5055523 -30.4792271  19.4454155  -3.7996638
 -29.7575188  19.4062309  -4.4943314 -31.2048721  19.6459198  -4.4194446
 -24.6070843 -33.7643967   4.5983129 -25.6183357 -33.7363510   4.3068514
 -24.2976379 -33.0587234   3.9886305  -6.8920836  39.2895164  -6.9719505
  -6.7421913  38.3520546  -7.2304015  -5.9646807  39.5764542  -6.8296294
 -16.7382450 -48.9455338  13.4135160 -15.8470078 -49.2405396  12.9851789
 -16.4855537 -48.0845528  13.7181025  -5.0636272 -42.0181847  -2.9180036
  -4.2784901 -42.4776917  -3.2847846  -5.7309160 -42.6812592  -2.9050384
 -12.3937130 -21.6817341  -4.7976494 -13.3164749 -21.6655922  -4.3518047
 -12.1642056 -22.5842495  -4.5396748 -31.6842442 -22.7956333  23.2816582
 -32.5364799 -23.1055984  23.7452717 -31.1172104 -22.7595730  24.0948830
 -40.0058327 -25.5356865  19.3973770 -40.0956268 -25.5399208  18.4292908
 -39.5874863 -26.4240761  19.5345879   8.3695326  -7.5131726   4.4642062
   8.8899479  -8.1996632   3.9078474   8.4490137  -7.9831347   5.3365369
 -15.5080767  11.3348494 -16.9641361 -16.1503162  10.6261320 -16.7135715
 -16.0763435  12.0115004 -17.4040031 -12.9886780 -28.6627445  16.8647060
 -12.5947542 -28.9907150  17.7009716 -13.3932362 -27.8079224  17.2500725
  27.3067265 -20.7909164  21.3665752  27.6475487 -20.0363636  20.8945370
  27.8526402 -20.7871723  22.1674080 -29.2745819   5.6099143  -2.1004641
 -29.6162739   6.4918404  -1.7169116 -28.5265560   6.0586371  -2.5647726
  19.6321163 -11.4020777   5.9796066  19.4719067 -11.3777170   6.9496193
  18.8059731 -12.0233631   5.7515230 -22.0692501   2.8158004 -44.9128304
 -22.7139091   2.4314835 -45.6217880 -22.7614460   3.3849232 -44.4464569
  -4.0962873 -12.7281275  31.6026611  -4.0892158 -12.8787155  30.6233177
  -4.6525292 -13.4609499  31.9362564  32.8473015  -7.9407268  -1.3002874
  32.0820885  -7.2696433  -1.2982630  32.8590775  -8.1645193  -0.3375062
  40.5243073 -13.6292658  23.5417538  41.3683701 -14.2331247  23.5650368
  40.6358109 -13.2619305  22.6008377  -8.4599571   2.3980515 -31.5121326
  -8.4041653   3.3656409 -31.4950714  -7.6610827   2.1661332 -30.9435711
   7.1760774   7.8070512   4.6008182   6.7795935   6.8990779   4.5239348
   6.3321729   8.3206358   4.6187663  37.8426933  -2.5029213 -20.8344631
  37.1291504  -3.1324766 -21.1600800  37.6088066  -1.6968009 -21.3205032
  35.3971291  -5.8137622  36.5602570  35.8180313  -5.9363642  37.4450989
  36.1770096  -5.4870529  36.0420151 -14.5314951   7.2575150  23.8946629
 -14.0239048   7.9223371  23.5193596 -14.1670666   6.4174209  23.6205349
  11.0921097  44.6680832  15.2272768  11.0677958  44.7705345  14.2913218
  10.5888481  45.5092697  15.4891634 -19.8994007 -28.8347778 -10.5147457
 -20.8094387 -28.9319820 -10.8036366 -19.6667156 -27.9164066 -10.7344475
 -43.2312164 -10.2204409 -21.1139336 -44.1029129 -10.5695467 -20.9250336
 -42.7198296 -11.0610723 -21.3213501 -39.1212654 -24.8574543 -19.2411613
 -38.5280533 -24.7830200 -19.9608421 -38.6920624 -24.1577969 -18.6455288
  37.8444481  -9.7245998  22.8076878  37.8807869 -10.0536299  21.8903198
  38.4510078  -8.9464750  22.7580147 -12.5021219  -0.4770567  19.7362804
 -12.8901358  -0.8991616  20.5676479 -11.5753860  -0.7299647  19.9192963
 -20.2532024 -34.8349648  -7.2323775 -19.7670002 -35.4451141  -6.6062560
 -20.6620903 -34.2530518  -6.4857130   4.0559835  43.6694183  22.9242420
   4.0267339  44.6618385  23.0845280   3.6459434  43.7189941  22.0369091
 -11.7739592  34.2694817  -7.0782857 -11.3719978  33.4682808  -7.5298529
 -11.3420639  34.1445885  -6.1557732 -32.6069908   3.8900588 -31.9255772
 -32.2093277   4.1741133 -31.0341110 -31.8578548   4.0620365 -32.5706978
 -27.9065285  25.1485748   4.4620709 -27.7882233  25.6801071   5.2936368
 -27.9080753  24.2645130   4.8738852  14.5499153 -21.7230873 -42.6590958
  15.4197035 -21.2893677 -42.8676186  14.2604618 -20.9407349 -42.0668106
 -26.1908970   5.6527939   0.5741450 -26.6387672   5.0032663  -0.0069727
 -25.6779823   5.0236664   1.1787411  -4.6176782 -17.9263153  38.1767387
  -4.7827392 -17.9791050  37.1850395  -5.5225143 -18.2438850  38.4577522
  -9.7939615  -3.4258616 -38.8337250  -8.9822159  -4.0306878 -38.7609749
  -9.9354954  -3.4836938 -39.8060036  -3.4548292  17.3869839  22.1837292
  -2.9302287  17.5892887  21.4111004  -3.7866268  18.2267265  22.5049648
  20.4007359  16.3524704  26.3144150  20.9631252  15.7151070  26.8705463
  20.9083424  16.3882370  25.5057278  12.9590750 -39.7098618 -20.9930840
  12.1468287 -40.1492653 -21.3082428  13.4379339 -39.5538483 -21.8825493
  34.6668167  19.9313946  28.4471207  35.3293839  20.1800117  29.1399231
  35.0376015  19.0932293  28.0996208  -2.3337932 -41.7689781 -14.5243759
  -3.2765639 -41.5473061 -14.7014532  -2.4311349 -42.7374878 -14.4214373
 -28.3042660  18.8366890 -13.1680851 -28.5349541  19.6303234 -13.7267971
 -27.3556156  19.0743351 -13.0010185 -26.3338776  25.7070637 -13.1752396
 -25.4884548  25.3261738 -13.4977551 -26.9674625  24.9894028 -13.4326601
  -9.6544256  24.0096359 -32.1378059  -8.6776886  23.9788074 -32.1071281
  -9.8975620  23.0886326 -32.0521622  27.3352413  38.1996460  13.9808226
  26.5801716  38.7529945  13.9629202  27.4409142  38.0203171  12.9944620
  13.6614513 -15.7886553   6.8842058  14.3418121 -16.3767395   7.2502084
  13.3697062 -16.3926563   6.1592302  29.3381329  42.1524925 -15.4980154
  28.7074223  41.4144478 -15.5548782  29.8138771  41.9418983 -14.6873627
 -10.9796553  32.5288620  23.3654976 -11.7450142  31.8891697  23.6063232
 -10.6720352  32.0550308  22.5570869   4.5085802   6.5289254 -43.6202774
   5.3691730   6.6937847 -43.2140503   4.7550464   6.3554664 -44.5303917
 -10.8206940  31.1722240  13.8704948 -10.0525379  31.7609921  14.0498714
 -10.9370031  31.2479382  12.8684273   8.4328394   9.8798141  13.6190157
   7.9687772  10.6899824  14.0188828   9.3071165   9.9431953  14.0232592
  -1.1019982  43.9414711  -0.6232246  -1.2013140  43.2850800   0.1247903
  -0.3988220  44.5110016  -0.1992024   0.7399586  -3.9954672 -23.9518967
   1.6507246  -4.3487158 -23.6918182   0.9755980  -3.1215172 -24.2409077
  25.7871704 -21.0841541  31.0261536  25.1423836 -21.5908241  30.4587650
  25.3216858 -20.2478848  31.0577126 -43.4484100  22.6216240 -20.4802704
 -43.5831947  22.6159706 -21.4379864 -42.4550362  22.5931549 -20.4591579
   1.4877113  13.7664165  30.5503998   1.0958508  14.0541258  29.6489735
   0.9988881  12.9008064  30.5608082  34.7211456   6.6854615  -4.0417700
  33.9052162   7.2387490  -4.1442037  34.4055748   6.0331287  -3.3498917
  36.8064766  -9.4119644  -0.9256195  36.2916908 -10.1046944  -0.4374490
  37.3575630  -9.9953318  -1.4880738  -7.3118753   3.8616824  -9.3854094
  -6.9822354   3.3658476 -10.1244812  -8.0380650   3.3031116  -9.0602875
   7.5653992 -35.4223366   6.5110745   7.0262637 -35.9709473   7.1527791
   7.5123968 -34.5447807   7.0029221  -1.7032415 -23.6573582 -11.3448400
  -2.0725012 -23.4337749 -10.4522018  -1.1951439 -24.5019569 -11.0843201
  23.9930058  24.0819073 -11.7116776  24.1352673  24.9234161 -12.0526838
  24.8055553  23.5434685 -11.9252234 -20.7283840  13.8225327 -11.9165716
 -21.3820038  14.3853092 -12.3264790 -19.8992977  14.2614193 -12.0899582
 -21.6938305 -19.5711460 -20.6348915 -20.8343868 -20.0675182 -20.5654621
 -21.4604683 -18.7941284 -20.1293087  -2.7753847  33.9203758  -8.1032991
  -3.1848280  34.3292732  -7.3052378  -2.1599212  33.3115349  -7.6762772
 -13.9052839 -45.4119148  17.7272129 -14.8119526 -45.7128983  17.7906780
 -13.5644312 -45.5862617  18.6395664  43.1954918   8.3248386 -19.1825771
  43.7354393   8.2241488 -18.3707714  43.3508453   7.4251318 -19.5842190
  25.4421520 -36.5138016   9.2386150  25.5665150 -35.6850166   8.7389164
  24.5259457 -36.4096375   9.5984516  22.7595348 -16.0274086  23.7003784
  22.0995750 -16.1063137  22.9630547  23.2618523 -16.8290558  23.5128613
  38.7273903  13.4078484   5.3437061  39.3073196  14.0743313   5.6765547
  39.0828896  12.6264582   5.6927853 -33.6780624  27.7059727   9.0483446
 -33.7417336  28.1616879   8.1363630 -32.7402458  27.9367447   9.1696577
  14.4860010 -12.5879354  47.9656754  13.8364954 -12.7122469  48.7193069
  14.5310545 -13.4883432  47.6330719  16.4189224  41.1033096   9.3695822
  17.0455704  40.8356705  10.0602436  15.7154617  40.4424171   9.4583311
 -19.8301907  -4.8875923  13.7687540 -19.5890598  -3.9450068  13.8073788
 -19.5387783  -5.1461172  12.8947392  -0.5531031   6.8846202 -13.8215523
   0.4354571   6.7883763 -13.8206463  -0.7643234   6.1202445 -14.4824944
  -6.5528898 -15.9469948 -26.6017857  -7.2401872 -15.7566347 -25.9741230
  -6.5960159 -16.8864594 -26.7251015  10.3844166 -36.9638443  12.3016596
   9.4527864 -37.2712440  12.3776464  10.2834978 -36.0853920  12.7249269
  15.6417818  14.4153404 -31.8679314  16.5283585  14.6046677 -31.3995495
  15.1105881  14.5285416 -31.0566044 -37.4689445   4.5368738 -36.2628326
 -38.1645393   3.9000626 -36.4731712 -36.8106651   3.9314957 -35.9228630
  23.4762173   5.6216655   2.4645264  23.5677357   5.1631198   1.6088721
  24.0303650   5.0240197   3.0152891 -40.4679222 -17.9417896   5.7995567
 -41.2838478 -18.2244091   6.2246757 -40.5098267 -18.4928017   4.9422979
  13.1661463 -13.7615891   3.7967222  13.6471376 -14.5950174   3.9497914
  12.7339153 -13.9259462   2.9460356  18.5466137  48.3790703 -18.5087185
  18.0105019  47.7306862 -17.9951515  18.9360867  47.7532768 -19.1624317
   8.3585033   9.8478823  25.5037937   7.9397421  10.4273977  26.0940628
   7.6840053   9.3052654  25.1272545 -29.6058216   9.3916626   9.0964613
 -30.3858604   8.8562670   9.2335167 -29.3985577   9.4582253  10.0987453
  37.8837776   5.5547686  -2.9762030  37.2338333   5.9989896  -2.3325586
  37.5708923   6.1248860  -3.7457108  42.7412987  -2.6521089  36.4550629
  42.2250366  -1.9397273  36.9450760  42.8234634  -2.1884449  35.5628510
   1.3545219 -12.0921345  -8.9705763   1.6991652 -12.1531363  -8.0644732
   0.4641376 -12.4535789  -8.8337049   5.7403350  14.5019760   8.5191422
   4.7737546  14.4533539   8.4134684   6.0710297  14.0337667   7.7303624
  19.2010956  -2.9046223  26.0297661  18.9826488  -3.4194613  25.2866650
  19.1504040  -1.9809831  25.6499767 -17.1285896 -33.6856537 -14.6900167
 -18.1447468 -33.6114769 -14.7147646 -16.8655529 -32.7489014 -14.7931862
  -7.7922225 -44.9568748  22.9810028  -7.8831053 -45.8609695  22.6032715
  -7.1360264 -45.1873207  23.7251167  21.1192093 -11.7738800  13.0023642
  21.4935894 -12.4560804  13.5403786  21.8424091 -11.5721140  12.4042578
  27.9769840 -19.3351040  -5.7527390  27.9651604 -20.2936153  -5.4550195
  27.1568623 -19.2856617  -6.2350574  23.1649437 -34.6600151 -13.6441336
  23.5924339 -35.2692375 -12.9980621  23.7124996 -33.8247719 -13.3869486
  10.8343029 -38.9777985 -24.3467464  10.0533295 -38.6216354 -23.8506908
  10.8465576 -38.4792671 -25.1926613  16.3630104   8.3422775 -28.9211273
  15.9317636   7.4440012 -28.8972569  17.3095856   8.0933838 -29.1533279
   8.5118494  11.8734770  -3.7352822   7.8162537  12.1424656  -3.0950797
   8.0743923  12.1153793  -4.5810833  -0.1000633  18.8077698  -3.7446625
  -0.5508198  19.6596298  -3.8089476  -0.6433500  18.3965263  -3.0026250
  28.3287334  10.4484501  -1.8671103  27.5997028  10.6188335  -2.4527884
  29.0760937  10.7690439  -2.4435396   8.0086327 -42.8705063 -16.9534473
   7.7267108 -43.7489548 -17.1584301   7.2355766 -42.5539246 -16.4212723
  -8.4093781 -37.3444099 -13.8890657  -8.8802719 -37.9920540 -14.4139051
  -8.9434414 -37.4505730 -13.0347185 -30.2272148 -26.9788265  -7.6480651
 -30.9356003 -26.3881073  -7.2902980 -30.0507545 -27.5002117  -6.8407755
 -22.0668087 -15.5260820 -18.8082657 -21.5899277 -14.7707691 -19.1917515
 -22.9872799 -15.3501101 -19.0654507  10.5567369  35.1057587 -26.0645771
  11.4837036  35.2363396 -26.2914295  10.2020054  36.0417900 -26.0685539
  18.3099060 -20.8687534  44.6869125  17.6914864 -21.6767082  44.6961632
  18.2578716 -20.6648426  43.7186737   2.4731915 -13.9743156 -36.1803360
   1.9044679 -13.6448107 -35.4566269   2.8341734 -13.1473866 -36.5119934
 -40.5735435   2.9079847  -3.9105253 -40.4023743   3.3654721  -3.0620418
 -41.3747177   3.3698220  -4.1684985 -11.4244423 -28.6119919  -7.6929841
 -12.2534122 -28.5899410  -7.2897453 -11.1754389 -27.6158676  -7.7385998
  29.9631405  -8.8309069  30.6015987  29.6443882  -7.9639273  30.9989204
  29.4890041  -8.8776350  29.7958813  -7.6344042 -10.9776487 -38.1449356
  -7.3992229 -11.4603386 -37.2947617  -8.2330780 -10.2785015 -37.7756538
  -6.1333327  -9.7256279  10.0917969  -6.5289106  -8.9401913   9.6400890
  -5.9668512  -9.3664780  11.0145264  -7.3655896  11.2444372  -2.4524298
  -8.0563936  11.2347841  -3.2195349  -6.7128482  10.5920258  -2.8706145
 -20.5043182  31.9285316 -20.4437618 -19.9923630  32.1391830 -19.6633778
 -19.8690319  31.3319607 -20.8895397 -14.3585339  27.2194748 -21.3792706
 -14.6661196  26.6393013 -20.6804981 -14.7891665  28.0841675 -21.1486168
 -13.2463245 -21.1073589 -30.4838753 -12.6829262 -21.3426609 -29.7774353
 -12.9761562 -21.6901627 -31.2157345   4.0608664  12.9627342  -8.7935381
   3.5102916  13.1340485  -9.5674782   4.5062885  12.1518669  -9.0492592
 -15.3034143  -0.0259475  13.8753185 -15.4367876  -0.2212455  14.8242769
 -14.6815386  -0.7142592  13.6370516  18.5432129 -10.7501287 -39.1347466
  19.3913250 -10.2915268 -39.0706062  18.7746601 -11.4921398 -38.4779701
 -30.9538746 -24.2055321   1.7934672 -31.0586243 -23.9674301   0.8279702
 -30.0031509 -24.1130219   1.8228874 -22.6362381  26.1359081 -24.1259117
 -23.0688057  26.4992371 -23.3024883 -23.2982445  25.4892311 -24.3912144
 -37.2215805  27.4545326 -14.1461277 -36.3850021  27.6813240 -13.5955095
 -37.0655365  28.1403236 -14.8541965  10.2680836 -37.7820854 -12.1088400
  10.5905981 -36.9124718 -12.3382339  10.4448109 -38.3009453 -12.9137239
  26.2622643  22.7718582 -26.1313972  27.0525742  22.7215977 -26.7349758
  26.1815052  21.8784943 -25.8043022  -4.3211274   7.7328196  -5.6596265
  -3.7409310   6.9029193  -5.5344229  -3.5860643   8.3401232  -5.8965769
  36.4864426  10.1664371  -9.0786152  36.2556305  10.9405775  -8.5554943
  37.1975098  10.4808159  -9.6605959 -16.3453598 -32.0859108  15.7773857
 -16.1435642 -32.5987930  16.5444527 -17.2463684 -32.4151955  15.5531693
   3.6815636 -32.3677864  14.5894079   3.4349544 -31.5486221  15.0772820
   4.2366185 -32.8063049  15.2280331 -21.3196945  31.4037113  11.6267166
 -20.3508396  31.2192879  11.5139284 -21.6830826  30.5192604  11.3451128
 -21.4748096 -16.5094032 -29.3210716 -21.9676647 -15.7576780 -28.9708118
 -22.2438736 -17.1342106 -29.5524044   3.8704205 -27.1963329   9.9400015
   3.0739379 -26.8892498   9.4903793   4.2047954 -27.9100151   9.4193363
 -14.6952448  21.9011955  -7.1074743 -13.9568396  21.3095131  -7.1125917
 -14.7336006  22.1393013  -8.0736952 -20.8584003  19.8033867  30.5921974
 -20.1837521  20.3212280  31.0062771 -21.7221775  20.2928352  30.8363476
  24.4616642  -1.3163275 -23.0794716  24.4940681  -1.6386266 -23.9840565
  24.9257717  -0.4423806 -23.1535416  23.3174858 -33.9155960  32.3655281
  23.7193031 -33.1155128  32.7898254  23.1195812 -34.4868736  33.1651917
 -24.6377354  14.3086205   5.0225511 -24.0289211  14.9309311   4.5209904
 -25.4700928  14.7703476   4.7491393  44.0857582  -2.0749152   3.9982920
  43.7713585  -1.5073766   3.2131031  43.4884834  -1.6730554   4.6912036
 -41.3265266 -19.0317001  -2.4530079 -42.1072655 -18.9815750  -1.8541975
 -41.7544823 -19.2533131  -3.3135495  18.3107224  13.4738331  11.2691269
  19.1274433  14.0651855  11.4155827  18.4368000  13.3578348  10.3341608
 -24.1205235   5.3568702  16.6196136 -23.2362785   4.9603457  16.7592888
 -24.5923443   5.0574470  17.4258232  19.8012276  40.8229027  -1.7593478
  20.2521667  40.0912361  -2.2730896  20.3818645  41.6090736  -2.0110326
  35.0309296 -10.5679750 -30.3110123  35.0819168  -9.8630095 -29.6986866
  34.5500984 -10.1815596 -31.0789547 -39.2941666  -6.5170054  28.1766739
 -38.9380569  -7.1238112  28.8232384 -38.6210022  -6.6713686  27.4229717
 -17.1051979  -5.9996939  26.8568192 -17.8572025  -5.4722371  26.5481319
 -16.4953327  -6.0411935  26.1097984  14.6676130   8.9552479 -16.8113747
  14.7051239   9.5450191 -17.5392818  13.8817225   9.3620062 -16.3491478
  18.8515835 -24.3898640  35.1153336  18.1329861 -25.0899067  34.8488197
  19.6093311 -24.9616394  34.8811264 -24.6011925  14.4449215  29.4031048
 -24.0984688  15.1246071  28.8203793 -23.8503456  14.0326414  29.8319302
 -39.8696060 -33.5436058  -1.3875110 -39.5646133 -34.3779640  -1.0319668
 -40.2117729 -33.8317795  -2.3082938 -11.5660419 -34.9870262 -20.0900002
 -11.5936317 -35.0828514 -19.1675777 -10.8619976 -35.6713562 -20.3111115
  -4.9392285 -38.9715652   2.7454126  -4.7469501 -38.0265656   2.8534691
  -5.7361975 -39.0486488   3.3399601  19.7476234 -25.3957672  15.9756298
  18.9496403 -25.8177471  16.3163452  20.0384312 -26.0919304  15.3337460
  22.6075096  37.2024765 -19.0863743  22.5322094  36.3864365 -18.5123978
  22.9686203  37.7751045 -18.3335133 -27.5085602  -6.4059577  -0.3381462
 -28.2086239  -6.2548604   0.3238058 -27.8850994  -5.7600446  -1.0385641
  -2.7092202 -40.0459099  22.3734322  -2.5521486 -41.0225372  22.4894638
  -3.6113176 -39.9923325  21.9786510  -8.8384781 -12.9006062 -27.5489178
  -9.0649357 -13.4035149 -28.3139515  -8.6490526 -13.5858250 -26.8966141
 -14.9218845 -23.3144512   2.2030559 -15.2537098 -22.5577946   2.7630517
 -14.1005926 -23.0218945   1.8267615  18.8090935 -18.4628124  32.9435768
  18.8359451 -17.4679279  32.8768997  17.8746128 -18.6083679  32.8881950
  40.3067322 -19.2873478   3.4947870  39.6998100 -19.2073765   2.7135303
  41.1866684 -19.2824936   3.0568652 -30.5259495  11.9540682 -31.2730293
 -31.0671043  11.5228434 -31.9798679 -31.0514164  11.7721605 -30.5063744
 -33.8664856 -18.2783203 -28.6551094 -34.3394775 -18.7974091 -29.3893700
 -34.6977539 -17.9052830 -28.2271233  10.1722155  18.5924721 -27.1765461
  10.3150549  18.5035896 -28.1416206  10.2099018  17.6894836 -26.9072323
   9.6344423  18.8524361  12.4419308  10.3114052  18.7708263  11.7226801
  10.0882311  18.4103928  13.1825314 -30.6003304  21.4919529   3.3044376
 -29.6331177  21.5691319   3.3887687 -30.8914070  22.3705292   3.3180542
 -36.7484932  33.9326286   9.2182884 -35.7776337  33.6959610   9.1545382
 -37.0834961  32.9852600   9.4433575   0.1724799  29.2311420 -24.4204998
  -0.2759545  28.4261761 -24.7241974   1.0610809  29.1219177 -24.7504482
  17.7407112 -17.0299854  26.0137482  17.6945324 -16.0240688  25.8152294
  16.7441063 -17.1328144  26.0332623  26.9301624 -15.9958830 -15.8814087
  26.7418613 -16.8445644 -16.2712231  27.0672054 -15.4762831 -16.7534370
  15.8798504 -37.4237823 -21.5194187  15.4200726 -36.7990913 -20.9724846
  15.1877155 -37.9224663 -21.9853687 -36.4208717  23.6925278  12.7935572
 -36.3446159  23.2427235  11.9426146 -36.5054855  22.9151592  13.4108639
  30.8879967  34.4793549 -19.8706913  31.1405907  34.7958488 -18.9557667
  31.7167263  34.0408401 -20.1093292 -44.0510597   8.0937662 -25.3717709
 -44.6040611   8.0109215 -26.1656265 -43.6528893   7.1683517 -25.4838543
  -8.2411404  12.0750904 -40.7928200  -7.3434935  12.0828476 -41.2307816
  -7.9690337  12.0026627 -39.8530693   2.6588938 -35.4419556  -9.7953186
   2.0335052 -36.2361259  -9.7731113   3.0699637 -35.6582336 -10.6596088
 -23.8357887  23.3729897   1.3623278 -24.5027351  24.0846882   1.1808099
 -23.1897430  23.8967400   1.7973729 -43.9988327  -4.9292865 -20.5741043
 -43.5295753  -5.3123097 -21.3755665 -44.2529144  -4.0591660 -20.9406757
  17.4178066  26.7839546 -21.7932434  16.7222099  26.1899319 -22.1575985
  17.8467636  27.1112232 -22.6075478   8.3609514 -10.2139664 -18.6846066
   8.0660295 -10.6091042 -19.5372486   7.7781854  -9.4771318 -18.5975342
  40.6688690   5.6715455  19.9807510  39.8435936   5.3207059  19.4408875
  41.3316956   5.2534361  19.3836765  12.4905214 -39.4721413  37.2022247
  12.6307249 -39.3525848  36.2163429  13.3977003 -39.1388245  37.4411163
  -8.1212749  -2.5963748  11.2036695  -8.2724266  -1.9056538  10.4777699
  -7.8643622  -1.9589148  11.9226208 -22.0977249 -35.7536697   2.5854630
 -22.8435440 -35.2150040   2.3294120 -22.3720665 -36.6784210   2.3557405
 -13.5349073  -7.1436667  -9.8957739 -14.1459970  -7.0304503  -9.1382523
 -13.2037067  -8.0478239  -9.6818867  22.4437180  -9.0506220  16.9586258
  22.9388466  -8.4021721  16.4750805  22.9989166  -9.8483295  16.9260807
   2.3948364 -40.2900276  16.0805225   2.5406382 -40.7625961  16.9410858
   3.0993030 -39.6092796  16.1548119  -0.2092901   2.0214646 -29.4009857
  -0.1063722   2.7010090 -30.1118183   0.6634054   1.9403789 -29.0992947
  39.4329262  -2.5621872  28.4018040  38.7378197  -2.9406648  28.9141636
  40.0687523  -3.3597238  28.2457981  44.5570793  -4.2454457 -17.9402447
  44.0587959  -3.5886807 -18.4582462  44.6544189  -4.9431438 -18.6575394
   0.5650458  13.9895649 -14.2009430   0.0322949  13.1877193 -14.3458061
   1.4533459  13.6836338 -14.0838747  10.6535168  14.7249355 -17.9038467
   9.7249985  14.6679144 -17.5663319  10.8771429  13.7703934 -17.9692211
   0.9701065  43.7263794   7.4027834   0.6755331  43.3590317   8.2388496
   1.8344672  44.0885582   7.6110878  28.5886860  -0.8335342  13.3085165
  29.3410416  -1.2101212  13.7120848  27.9010029  -0.8682593  14.0326214
 -38.3286400  10.6362238 -19.5976048 -37.4194069  10.5785618 -19.2615089
 -38.6502037   9.7517824 -19.3423824  20.0657940 -31.0994740 -14.4298496
  20.3958912 -32.0071907 -14.5933752  20.5434780 -30.9363232 -13.5944605
  41.3416595  19.3564434  25.6902733  41.8833008  18.8638058  24.9758682
  42.0601997  19.7776661  26.1630154  18.4163914  35.7414284  14.2102766
  17.4566956  35.9114571  14.3976288  18.5499134  36.4705620  13.5193939
   2.0748415  36.5478096 -20.1201763   1.2824775  35.9409637 -19.9625931
   1.9221908  37.2520714 -19.4300060  20.7753201  10.1603222 -30.6961212
  20.4029732  10.8415270 -31.3439350  20.5063038  10.5060778 -29.8853989
 -44.1659317  24.4427338 -10.7763729 -43.9045258  25.3321514 -10.4206018
 -43.8741493  23.8492737  -9.9937973 -12.4224148 -38.0755310 -12.8116837
 -11.9158030 -38.3729286 -11.9564800 -12.5483313 -38.9712029 -13.1896992
   1.6040082   0.9516092 -20.2403259   1.2075475   1.4674197 -20.8939190
   0.8624024   0.2723599 -20.0337429 -41.8958855  29.9656162 -20.2340488
 -41.9419060  30.9437122 -20.2814655 -42.8202629  29.7136154 -20.3065224
  40.9858208  18.1746788 -15.2117233  41.0402565  18.2160091 -16.1881123
  40.0751038  17.8570347 -15.1020489 -11.2453308 -44.5152779   2.6782901
 -11.3714294 -43.6016808   3.0743551 -11.2144117 -45.0601349   3.4400377
 -11.0316935   9.7367916  19.3917751 -10.3959494   9.7283983  20.0849762
 -10.6467161  10.2042694  18.6563988 -33.7076988 -13.1012583  17.7474766
 -33.6508255 -13.8135557  18.4199429 -32.7747116 -12.7439976  17.7917976
  43.9324875  -5.9391537 -14.1189184  43.3768997  -6.7072392 -14.2264538
  43.6159096  -5.5500517 -13.2797003  19.8861732 -23.3089104  24.1343555
  19.9488125 -24.2136631  24.5984612  19.0650959 -23.0314445  24.6001377
  -7.1255097 -15.9391518  10.5236473  -7.0522814 -15.7943439  11.5221148
  -6.2913666 -15.5667229  10.1952648  27.5889721  26.2063141  -3.1094034
  28.3591061  25.7827873  -3.4691439  27.6991711  26.0136490  -2.1737535
 -43.1457329   9.4659996  21.5018768 -43.9648781   9.8107862  21.9597340
 -43.1886978   8.5878048  21.7818508 -21.1565037 -44.1882744  -4.8180232
 -21.6455975 -44.3300133  -5.6605453 -21.3560333 -43.2600327  -4.6418839
 -13.5238533 -50.6971207   6.2332096 -13.3874598 -51.4218102   5.5316401
 -13.3192511 -49.9382515   5.5790877  13.1571159  31.9044018 -15.3785505
  12.8339224  31.0464745 -14.9762306  12.5312490  32.0537453 -16.0899239
 -36.0239143   6.3203368 -22.6916962 -35.4666481   5.6401148 -23.1487503
 -36.7898369   5.7604399 -22.4291306  33.4271240  -4.3754144 -14.8681049
  34.3750572  -4.2745528 -15.0863371  33.2344170  -3.4514716 -14.4730177
 -25.6732082  16.0188141  -3.8569822 -25.7118073  15.2002153  -4.4344254
 -24.6628628  16.1620083  -3.8744731   1.4455203 -43.2639961   8.4450388
   2.0845239 -44.0071335   8.3395700   1.2963375 -43.0045586   7.4953928
  -1.3452269 -38.7608376  -6.7937150  -1.7889928 -38.9955597  -5.9089136
  -1.3939108 -39.6229286  -7.2486458 -43.0788155 -20.7626190  24.1975250
 -43.8640785 -21.4027519  24.2139206 -43.0460548 -20.5678253  25.1639919
 -33.2320442 -36.8579712  -7.7503777 -33.9008369 -37.2724915  -8.3608885
 -32.9682121 -37.7226219  -7.3485632 -12.1087494  13.7891941  51.3925476
 -12.9214754  13.9028234  50.8389854 -11.9112139  14.7187948  51.5051155
  27.6690178  34.7725716  13.5345306  27.1589851  33.9500809  13.4598293
  27.0738735  35.4801712  13.2515421 -29.5380764  33.9012299  16.8889809
 -29.0642700  33.9097214  17.7147465 -29.6743622  34.8489189  16.6399288
 -21.3323364 -40.2503548  21.2848949 -22.2111416 -40.2985992  20.8200378
 -21.4326382 -39.4095001  21.7910461  -6.3650680   3.1222718   4.8322620
  -6.7096434   3.6469235   4.0703149  -7.1483760   2.6789927   5.2071953
  27.5534229 -34.2586327 -10.0333824  27.6726475 -35.0506172 -10.5894375
  28.2072887 -34.3276138  -9.3345251  -1.0499856 -17.5435963  -5.5644765
  -1.6356151 -17.8124561  -6.2795806  -1.0502262 -18.4472618  -5.0361128
 -31.5581646  -0.8161697  27.6142063 -31.5549507  -0.3378870  28.5141773
 -31.7405243  -1.6938714  27.9514141  36.1011887   8.5014048 -20.8022385
  35.1840897   8.8750687 -21.0508060  36.5941963   9.0151691 -21.5077763
 -25.6758041  31.0903931 -10.4926271 -25.6790848  31.5502720 -11.3856373
 -24.9286366  30.4496269 -10.6973047   4.4532409 -12.9172716   8.7435923
   4.1808262 -13.5963860   8.1916590   4.6501803 -13.3409195   9.6271973
   2.2388322 -38.7732582  12.6690636   2.5218575 -38.0689278  12.0632315
   2.8800645 -39.4576340  12.3338671  19.9998760 -19.6267891  40.5108910
  20.6584816 -20.0807514  39.9343834  20.3560390 -18.7341499  40.5316048
   1.3818805 -20.2429733  17.8865910   1.5178242 -20.9352245  18.5584984
   0.7943820 -19.6197586  18.4251232  -8.2721481  20.2207584 -13.2139940
  -9.1736927  20.1729374 -13.6137276  -7.8610802  19.3708057 -13.6005564
  11.1058006  16.1653805  39.5366249  11.2890377  17.1088505  39.4659615
  10.7010098  15.9912004  38.6437874  19.8765297 -37.9590263  28.8943329
  19.0433750 -37.4431114  29.0137119  19.8647480 -38.5299034  29.6823387
 -41.8814163  -5.1707311   3.2441452 -41.8062477  -4.4087334   3.8990726
 -41.3598976  -5.8130035   3.7070031 -16.6013508  19.5846577  13.6698360
 -16.5939465  19.6252556  14.6238470 -15.9011106  20.2228088  13.3992071
   2.8576379  45.8685341  -8.9980116   2.9450026  45.2212563  -9.7520370
   2.0208716  46.3056412  -9.3222055 -28.0237637  11.7988615 -27.7482853
 -27.0932503  11.4871254 -27.6424084 -28.3895702  11.0168209 -28.2189426
  30.2849445  -2.1579132 -31.1874409  31.0032616  -2.1352384 -31.8063679
  30.1678944  -3.1323352 -31.1003418 -18.3925648  21.0022945 -17.6615372
 -18.0590611  21.3414822 -18.4666348 -19.2126827  21.5717049 -17.6262341
 -22.0421677 -12.8633842  29.8630104 -22.5615349 -12.9245834  30.6263409
 -21.2225628 -13.4033689  30.2114964 -38.5863953   8.6978884  -4.0310307
 -39.3669319   8.0704718  -4.1356187 -38.1361694   8.2317972  -3.2498367
  40.5683899  -5.0135660   5.7535295  40.6238899  -4.4771647   4.9158516
  41.4897423  -5.3620453   5.8065367  -8.2572670   7.7024999  27.6036739
  -8.0440617   7.6849756  28.5250702  -8.9768085   8.3869133  27.6303463
 -39.8241234  -4.6409078   7.0083523 -39.9454727  -4.2882338   7.8667951
 -38.9154739  -4.9458156   7.0577869   6.5146165  -0.4668395 -38.1105385
   6.8554287  -1.1783745 -37.5317879   7.1658688  -0.5688881 -38.8797112
  22.0585556 -16.8852234 -14.9660578  21.2824917 -17.5071735 -15.1066017
  22.7844868 -17.4521751 -15.4076147 -23.6795540   1.5810471  26.6269073
 -23.3154335   1.9158286  25.7663155 -22.8339634   1.3981767  27.0936241
  17.5741577 -36.0935402 -27.2147064  17.5988674 -35.7674217 -26.2959919
  16.5974293 -35.9324341 -27.4228325 -15.2223644 -32.1038170 -28.7383919
 -15.3820868 -32.9469490 -29.2519150 -14.8506117 -31.5708561 -29.5237541
  30.8396339  -5.2168455 -11.1526518  31.2047482  -4.8334417 -10.3285427
  30.8558331  -6.1742020 -10.9945517  -5.8819757 -26.3288441 -18.7903080
  -6.5746064 -26.4470730 -18.0461674  -6.4591870 -26.4192562 -19.5572777
  -6.7431636  25.4135818 -25.3357391  -7.5437007  25.4004555 -24.7429047
  -7.1224141  25.0132160 -26.0991764   2.6715057 -30.6227093   1.0143535
   2.7231836 -30.6417828   0.0227737   1.9013867 -31.2328243   1.2039534
  -7.6568165 -11.7438698  15.2319040  -8.4682980 -12.1769619  15.5304031
  -6.9520550 -12.4090939  15.2272234 -18.2475719 -14.9133997  17.0879707
 -18.4683266 -15.8164806  17.0080700 -17.8476925 -14.6561031  16.2540188
   0.2627228  32.7089157 -14.1579561   1.2229728  32.3325386 -14.1342516
   0.1045245  32.7565117 -13.2204361 -21.3838692  -3.3318024  16.8853168
 -20.8227711  -4.1286492  16.6913033 -22.2590694  -3.7212536  16.7256012
  20.4059887  32.7886391  25.9846287  20.7676640  33.5085564  25.3969536
  19.9954910  33.2929192  26.6946831 -18.7806301  -0.5933429  36.9016609
 -19.6127205  -1.0124419  37.2694550 -19.0052452  -0.7626335  35.9534645
 -31.8759212  12.5390863  33.0822983 -31.3606434  13.3544521  33.0397911
 -32.7283249  12.8363695  32.7014236 -13.8889036   8.3153439  19.2170696
 -13.2098103   8.9127750  19.6086292 -13.6040716   8.5283318  18.2600307
  -3.7646742  -6.1465888 -36.7123070  -3.3243849  -6.2351460 -35.9023514
  -3.3957703  -5.3052192 -37.0444870 -37.9197464  -7.4896417   0.5375001
 -38.6158485  -6.8011055   0.2602266 -38.4278717  -7.9625330   1.1725558
  24.8614731   9.6457939  -0.3868711  24.3934975  10.1757030   0.2503227
  24.8948002   8.7735825   0.1291723  22.1230259 -37.5583229 -25.6751099
  21.4738007 -37.2265511 -24.9985123  21.8574104 -38.4881783 -25.7267170
 -18.0745411  31.2650738 -37.6053238 -17.7870655  32.1787987 -37.6655502
 -17.5799828  30.8616352 -38.3481407  14.8023777  33.2631989 -26.4595108
  15.4984045  33.6665840 -25.9400005  14.1154108  33.8796387 -26.4798489
  13.7644758 -27.9449692   1.6929747  14.0764599 -27.3020420   0.9421056
  13.6025438 -28.7407608   1.1438754  -9.8004503  -6.0451837  22.9805088
  -9.4547472  -5.9130831  22.0344982  -9.1257696  -6.6529503  23.3091145
 -15.4157543 -12.3752546   4.2038450 -14.4577923 -12.4640827   4.0832887
 -15.5375376 -12.9081745   5.0305195  23.4410133 -14.5230455 -23.8647537
  23.5963326 -15.4125376 -23.5238457  23.5638504 -14.6333704 -24.8247032
  32.2495995 -19.6726189 -18.5224628  31.6527386 -19.0332870 -18.0848560
  32.8866425 -19.8360100 -17.8343849 -43.8287621 -12.3183985  -9.9088831
 -44.3953018 -13.1125498  -9.7870455 -43.5043526 -12.4987297 -10.8157835
 -13.3699608 -16.8896046  -3.5835352 -12.6350946 -16.3143711  -3.7026932
 -13.3609514 -17.0428181  -2.6483171  33.5069084  -4.4316335 -35.8985596
  33.0526962  -4.1639752 -35.1075668  33.0484581  -3.8154073 -36.5675926
 -14.9000607 -41.9717369  19.2086525 -14.9963932 -41.1154976  18.7878780
 -14.2364960 -41.7557564  19.9330063  -2.4381945   0.2656267  38.8008881
  -2.9138021   0.0488353  39.6615868  -3.2019036   0.5350274  38.2238960
   2.2088904   6.3511701 -13.7779703   2.4831698   5.4552107 -13.4878407
   2.3702900   6.2726822 -14.7624016  22.2528744  -5.3980694 -21.7361698
  23.0955200  -5.8482409 -21.5838547  22.3110332  -5.1997910 -22.7479038
 -14.4132013  33.3714561  19.2957039 -15.2857761  33.7883453  19.4444675
 -13.8800030  33.8082619  20.0275803  -1.3036275  24.1301765  33.5451317
  -1.5392030  24.3605461  32.6275177  -1.9940033  23.4753456  33.7632332
 -35.3607979  20.4213219  12.7900190 -36.0941963  20.6680603  12.2202501
 -34.6582947  20.4353352  12.1263819 -11.0662136   8.7112131 -50.0503464
 -11.1015444   9.0364838 -51.0093727 -10.7658758   9.5402555 -49.6590538
  -8.7067709  11.0779266   4.8911800  -9.0578423  10.6908112   4.1264620
  -8.1146612  11.7641544   4.5634313 -31.2025547 -11.7571344 -33.4916115
 -30.6578407 -11.6377821 -34.3160896 -31.1333580 -10.8401089 -33.0663948
  -6.9406209 -13.4198742 -18.2484188  -7.3417835 -13.9407024 -18.9884586
  -7.5636840 -13.6781855 -17.5128384  -8.0975714   2.9008243  -5.3187995
  -7.4084406   2.3664618  -5.7664843  -8.8984289   2.3858140  -5.5688372
 -39.2080383  -2.2554889  31.2425442 -39.2068748  -3.1053622  30.7395115
 -38.5929298  -1.7750969  30.5838947  38.4306488   2.2678406  34.2684479
  38.0282326   3.1761780  34.5699005  39.0373077   2.6604612  33.5900307
  17.2281761  -8.9611616  51.9456596  17.3650017  -8.9758797  52.8957748
  16.7060204  -8.0972023  51.8404846  14.5238161   9.1488762  -2.1184278
  14.1418352   8.2111454  -2.1576109  15.4079971   8.9510775  -1.6852610
  40.2594299  32.8007736  10.0710983  39.8260422  32.1949921  10.7305841
  41.0141563  32.2303925   9.7870712 -22.0606899  33.8627892 -28.6055565
 -22.0559387  32.8381920 -28.4343319 -21.0849819  33.9844475 -28.5981674
 -32.5754471   4.9452987 -38.2063751 -32.1305962   4.3118849 -38.8455544
 -33.4510002   4.4560943 -38.1314087  22.2745895 -26.7641087  36.5634613
  21.6037445 -26.2777863  37.0971489  22.2760010 -27.5705185  37.1635208
  41.0480576 -18.5741482 -10.0688171  40.5934181 -17.7628441  -9.9004707
  41.0689087 -18.6450825 -11.0163050  44.1546555   9.1731396  -8.5715485
  43.6180687   9.9774351  -8.6043596  44.7167969   9.3613033  -7.7544560
  30.5898533   2.0924826 -13.1013269  31.2692223   1.9100527 -12.4778814
  29.8129425   1.7069904 -12.6725645  29.0335274  16.3631496  -4.0080671
  28.4223709  15.6822758  -4.3421378  29.2413635  16.8553619  -4.8102703
  10.2679729  -1.6699752  19.1829376   9.4727583  -1.7571833  19.7956352
  11.0260620  -1.7257060  19.8083000 -20.4985085 -10.9481592  19.5535202
 -20.4142170 -10.9932480  20.5225372 -21.4821091 -11.2077188  19.4351254
  19.1159534  -4.2387643  -2.1325626  19.5867310  -4.7546597  -1.3962439
  18.9080544  -3.4162729  -1.7173868 -15.4308691  11.4365616  -0.3161207
 -14.8642797  12.2285824  -0.4028613 -14.9833727  11.0639753   0.4530751
  12.7537241 -10.6213684  18.8542347  12.9467449 -11.3101931  18.2021523
  12.3001499 -11.0637255  19.5595856   3.2555532  12.4502039  10.4996347
   2.9655793  12.4360609  11.4510012   3.5927634  11.5207624  10.4884567
 -27.0330887  17.3885765 -20.3101139 -27.8170643  17.3400669 -19.7126522
 -26.7447395  16.4609432 -20.2846489   1.2264067 -22.6253510   4.0191875
   0.9167648 -22.0025940   4.7278080   1.1076142 -23.4967670   4.4592304
  36.8962784  32.9875526  -8.4494295  36.6823692  33.1064835  -7.4694352
  37.6376228  32.3761864  -8.4106131  27.5839539   8.4545307 -33.7126274
  27.2754574   8.9684486 -32.9885178  28.5404129   8.7264194 -33.7490234
 -16.9657593  11.9438696  -8.6010351 -16.6788158  11.0830555  -8.9728279
 -17.5586224  11.6072788  -7.8802395  21.8755474  -1.7819939 -21.6364212
  22.7974529  -1.7715088 -21.9671841  21.4994678  -2.5894146 -22.0128498
  15.1129684  25.8436966 -15.2370853  15.6972151  25.2155876 -15.7868624
  14.5425549  25.1221962 -14.8652363   7.8128281   3.4719734 -32.3221283
   7.8750587   3.4759240 -33.3233032   7.9707785   2.5186374 -32.1841354
   6.1174011  40.9417763  11.7618914   5.1364999  40.9711227  11.7226171
   6.2653141  40.6891556  12.6524477 -11.5020161  17.8259850  -8.1379223
 -11.6715384  17.5998421  -7.1590662 -10.7599478  17.1842880  -8.3360405
  36.0295334 -28.5901070 -15.7167912  36.7207718 -27.9060898 -15.9596729
  36.4753342 -29.3577652 -16.1953068 -28.8154087   6.6719441 -28.7738571
 -29.5570793   7.1882162 -28.4033337 -28.7590885   5.9812264 -28.0453892
  -6.0138898  25.4333172 -36.1022644  -6.0578532  26.3250446 -36.4818573
  -6.4277534  25.6211014 -35.2022552 -25.5375671 -22.6137218  -6.3663082
 -26.2949352 -23.2454967  -6.5131946 -25.6080494 -22.5165634  -5.3788137
  25.2170696  13.5784626  -7.3214717  24.2926750  13.1782970  -7.3982301
  25.0666142  14.4418211  -7.0059767  36.6340332  -5.4571619 -27.7387199
  36.7940559  -4.5122299 -27.9606647  37.1447334  -5.8217726 -28.5067253
  37.5272789  -5.8395376  11.4785032  37.1474686  -6.7154384  11.3312998
  38.0875549  -5.7328091  10.6628466 -16.6613140  34.1403999  27.2256508
 -17.3124332  34.2801018  27.9267387 -16.1647949  35.0080986  27.3618317
  24.8272629   2.7934790 -16.4690056  25.0913219   3.3920403 -15.7689438
  25.7032490   2.4829342 -16.8702087  -8.2100620   1.4115416   5.9718060
  -9.0830259   1.3913605   6.4645157  -7.5788212   1.3082558   6.7437224
   3.0411069  -2.7805874   9.3758602   2.5233712  -3.5305014   8.9309530
   3.4868095  -2.3767743   8.6283789  18.9816513   3.3530092  16.3338776
  19.0534668   4.3180466  16.3981018  19.9086056   3.0935609  16.3260956
 -19.7857704   3.3411896  -2.8745751 -20.5561562   2.7514567  -2.5717580
 -20.2883129   4.1116109  -3.2267776   3.3568723  13.0233335 -16.3691330
   2.5476346  13.6112499 -16.6138592   3.6271095  13.5251904 -15.5377855
 -25.2086926 -19.5761452 -23.0163345 -25.2575932 -19.3877449 -24.0110931
 -26.1706619 -19.5769691 -22.8047676 -11.6435957  21.7530994  27.5683308
 -11.9723282  22.0589123  28.4449215 -10.6800346  21.6808910  27.7805748
   3.4663389   0.0274689 -41.8879929   3.3463228  -0.7328284 -41.2120171
   4.4891095  -0.0270195 -41.9029083  -2.1347189  13.3313675   7.3596344
  -2.4256887  13.4929485   8.2471685  -2.0650253  12.3445787   7.3567328
  15.1997232  44.7535629  21.9393749  14.6630526  45.1853065  22.6700382
  14.5301914  44.3776550  21.3461304  21.2981682  15.7296505  15.2929230
  21.8757076  14.9587631  15.0778055  21.1632729  15.6318474  16.2289734
  15.7303629 -36.0359077  37.1156311  15.3737259 -36.8841095  37.3853836
  16.6253586 -36.2374039  36.8906517  21.5716496  16.4050694 -13.7202063
  21.0601578  16.2339020 -14.5284052  22.4742546  16.3298149 -14.0240040
  -9.9476366  42.9770470  23.7830086  -9.9131441  43.6486244  24.5174713
 -10.1244450  42.1501656  24.2089577  -8.8062611  -5.4932966 -23.5348644
  -8.8084211  -4.8270388 -22.7790070  -8.4603996  -4.8745880 -24.2257519
  -5.7584662  11.8775473  34.1413383  -5.9466510  10.9633036  34.2582283
  -4.8324728  11.9730368  33.9995689   4.0851331 -14.9749517  -8.6494780
   3.2931836 -15.2155056  -9.1996603   4.6632957 -14.6231670  -9.3740578
 -19.9836807   2.0939045  33.3078918 -19.6473770   2.5928931  32.5560455
 -20.9546299   2.1386869  33.0357628 -19.3901577  23.0703697  39.5134468
 -18.9521427  22.2989750  39.8963699 -20.3262119  22.8538170  39.7384872
   7.1494794  27.4459782 -13.6951818   7.0251651  28.2864437 -13.2085476
   7.5850801  26.8660240 -13.0073156  28.9852409  22.3547974 -27.6827469
  29.8747826  22.6431236 -27.7947941  28.5914364  22.5539169 -28.5591164
 -14.7814054   4.3610334  20.6814480 -14.0491419   4.2240705  20.0513020
 -15.2357054   5.1698041  20.3901863  31.3179474  -5.5789294  39.9543381
  31.5583439  -6.4804335  39.8090363  30.8495331  -5.7202039  40.8844643
 -25.9721336 -29.0611076   2.8292892 -26.3515320 -28.1275711   2.6151471
 -26.7728024 -29.3778458   3.3283210  -8.9823217 -31.6415253  -1.4251606
  -8.3062439 -32.1772270  -0.9770298  -8.9754133 -31.9407272  -2.3662267
  -5.5318890  -4.2480602 -24.1727009  -6.2775316  -4.0251985 -24.7482777
  -5.7833419  -5.0550871 -23.7243290  34.7951546  -4.6210341  22.9988060
  35.3200417  -4.2331271  22.2977028  34.6618385  -5.5640130  22.8151112
  17.3329773 -23.4920750   6.7831864  17.8272572 -24.3599224   6.9769545
  16.6789951 -23.9589481   6.1357765  16.7242641 -14.3949165 -40.7787514
  17.5223751 -14.9433575 -40.8320084  17.0259190 -13.6497374 -41.3782806
  41.7722664  -5.1260977 -17.8329620  42.7290840  -5.1717076 -17.8450642
  41.6282158  -4.8344922 -16.9158974 -31.2846260  -3.6501145 -37.2617226
 -31.6064758  -4.5719957 -37.3814545 -30.3114033  -3.8764734 -37.3391876
  15.8854790  32.2013206 -20.5601292  15.0020790  32.2815323 -20.9460526
  16.0507355  31.2621021 -20.5718269  27.5141659   8.9022446  28.7212124
  27.0769157   9.5614939  28.1627293  27.8543167   9.4616976  29.4394836
 -17.0656624 -12.7730236 -38.8931007 -17.1129456 -12.0943632 -39.6307678
 -17.9661961 -12.7065477 -38.5452118 -33.1742439  23.2155285 -20.9508553
 -32.4736595  22.6458282 -20.5003014 -33.3370590  23.8305931 -20.1868324
  32.9925919 -34.3526917   6.9213676  32.2863770 -34.8853493   6.5105844
  33.3243446 -33.8338127   6.1200018  14.2483177 -25.8805237  -5.1585293
  14.0613728 -25.7713680  -6.1749787  14.6322165 -25.0137787  -4.9435210
  21.3332195 -10.7668123  26.4701614  21.6611633 -11.6395664  26.7437611
  20.6039543 -10.5920362  27.1120529  -4.8458934 -14.2120914   9.5475349
  -4.1649766 -14.0168562   8.8513594  -4.5661430 -13.4537363  10.1864195
 -10.4928885 -13.8813238  -8.4126463 -10.6032782 -14.3190060  -9.2351789
 -10.1138868 -13.0357094  -8.7523088  16.6942501  -1.7393221 -29.4219513
  17.0875664  -1.6078056 -30.3479958  16.2466812  -0.8879632 -29.3265533
 -32.8211899  -7.1557989  26.1929779 -33.1098785  -7.5809660  25.3330994
 -32.7396049  -7.9453511  26.7565403  20.6213531  -4.3460522  46.3812943
  21.2440643  -3.6308017  46.1631470  21.1685123  -5.1174254  46.0184708
  32.4895782  -5.8655601  10.2702780  32.1442719  -4.9499621  10.4551573
  32.7046432  -6.1615248  11.1270952  23.4548130  -8.9351540   5.6293926
  23.2078571  -8.3248177   6.3051772  22.9677162  -8.6162500   4.8531232
  21.3074532  25.5554276  -9.2141294  21.2790222  25.2177696  -8.3298216
  20.7912407  24.8885860  -9.7242279 -37.9974709 -20.2830086 -10.4542141
 -38.5331116 -20.5028419  -9.6407366 -38.1915817 -21.0292702 -11.0307274
  24.0101242 -11.5326853 -41.2843323  24.1058636 -12.5202875 -41.2992363
  24.8843441 -11.2646017 -41.0168495  27.7287731  37.4658508  -7.3653474
  27.0530777  38.0151329  -7.8803844  27.0975399  37.0688972  -6.7213969
  34.1711006 -19.9915848 -16.0993671  34.6300888 -20.7377815 -15.6232071
  33.5200386 -19.7089596 -15.4850149   6.2903643  -3.1314490  -3.9189966
   6.7150292  -3.5010648  -4.7185855   6.0805373  -3.9475045  -3.4358504
  41.9236031  22.4512901 -16.5410881  41.2239647  22.2392464 -15.9170666
  42.3545876  21.6041527 -16.6430321 -17.7047329  -0.6004394 -10.5719900
 -17.2240238  -0.3288550 -11.3282633 -18.6162167  -0.5795742 -10.8739071
 -28.1821651  20.2758617 -33.4863129 -29.0996189  20.0585899 -33.6863632
 -28.3128319  20.7332497 -32.6593857  -0.7403045  34.3373413 -25.4339237
  -0.4738739  35.1575813 -25.0741806  -1.3942370  34.0530357 -24.7724819
  23.9296551 -22.7233372 -33.5741348  23.3711700 -22.7006950 -34.4005508
  23.9705620 -23.7181473 -33.4593925  -4.1580815  -0.7484834   0.2166878
  -4.9147000  -0.4983315   0.8930089  -3.4147074  -0.5096682   0.7946326
  25.7270794 -23.9261990 -20.4745808  25.3641472 -24.4795704 -21.1725082
  25.3196507 -24.3054276 -19.6593456  30.9628201  24.6023769 -10.9714546
  30.2360096  24.4194183 -10.3801088  31.7001076  24.2491646 -10.3703575
  10.1449289 -32.2532463 -36.8391953   9.5468597 -31.7125816 -36.3096428
  10.4748774 -31.5728111 -37.4636841 -20.9110832  -1.3019712  44.4642258
 -21.0004711  -0.4485244  43.9327621 -21.6382713  -1.8037432  44.0361710
 -33.6891365 -29.7121334   1.3020136 -32.9125557 -29.7206306   0.6697549
 -34.1602898 -30.4622440   0.8427495 -15.3547297 -23.9285221  -0.9427740
 -16.0126343 -23.8114185  -1.6371651 -15.6207781 -23.2279034  -0.3530579
  -6.4037752 -40.2538338 -20.8172016  -5.9224467 -40.7735100 -21.4959717
  -6.0376720 -39.3462410 -20.9645119  27.1019573   8.7754316 -25.2044163
  27.8484516   9.2460489 -25.5595303  27.0961895   9.0445757 -24.2642307
 -21.3512497   9.6558504  -7.5219784 -21.2272491   9.7142191  -6.5473132
 -21.7469463  10.4942608  -7.7441373 -21.6488628   1.7059734  -2.3419623
 -22.5232735   1.8681504  -2.7268341 -21.6797104   0.7136682  -2.1464736
 -43.0977859   5.3061552 -10.5378733 -42.4346428   5.5323310  -9.7565336
 -43.1767082   6.2682571 -10.7877846 -31.2593174  -3.7342594  -7.2371988
 -31.1669884  -2.8286724  -7.4307613 -30.4748631  -4.1846113  -7.5556436
  -6.5532432  44.4253654  -8.2268190  -6.6031861  43.9985924  -9.0823374
  -6.9312224  43.7021179  -7.6941600 -44.2444000  30.4535007  -5.6555982
 -44.4837914  31.3983612  -5.4198289 -43.2674103  30.4774723  -5.3432655
  26.7698574  37.1340675  20.5011845  26.1241169  37.1094589  19.7501545
  27.5689316  37.4613762  20.0395737  32.6678619 -31.2834911 -17.3179970
  32.0289001 -30.5664978 -17.6043606  32.7042389 -30.9801693 -16.3378601
  19.3339844   3.6334128 -14.3403511  18.5946999   4.2293835 -14.3016758
  19.8041210   4.0054717 -15.1540337 -14.9010649 -37.6098328  10.5748920
 -14.0680580 -38.1660957  10.6641235 -15.1024733 -37.4062653  11.4789410
  10.3766537 -20.9530716  -1.4046639   9.7704039 -21.5186367  -1.8753383
  10.4387159 -21.3634529  -0.5186107  18.1637325  16.3222065  12.9979467
  19.0523510  16.2807941  13.3867054  18.1759377  15.7085295  12.2680321
  37.0796547 -32.4665871  -6.4507670  36.0811195 -32.5316963  -6.6434932
  37.1302757 -33.2416992  -5.9043241 -40.8773117  26.0506630 -19.3364697
 -41.8346901  26.2850113 -19.1725445 -40.6445465  26.6114063 -20.0743599
  29.9162788 -27.3308544  -6.2942924  30.8196354 -27.2087269  -5.9859195
  29.9028091 -26.9018517  -7.1768832  14.3267746  23.6458130  18.3562489
  13.5419168  23.8616219  18.9188023  14.0589151  24.0563488  17.5220280
 -20.9257240  23.1970329  -4.4535236 -21.8393593  22.8630600  -4.2136288
 -21.0740414  24.1259327  -4.3096251  19.7258739 -16.9612732 -41.0697365
  20.3747349 -16.8616753 -41.8423386  20.3790836 -16.8742008 -40.3284111
  21.2029133  42.9640465  -3.1599429  20.4478436  42.6057434  -3.7050481
  21.9617290  42.6344604  -3.7033648 -20.1108379 -24.7609520 -10.9238787
 -20.0058727 -24.5220890  -9.9586544 -19.9986458 -23.8600826 -11.2812233
  30.4887142   2.7664254  22.9093704  29.9921989   3.3501024  23.5563030
  29.6462269   2.4628558  22.3751507  37.8858376   4.0140495 -16.1711731
  37.0195770   4.3587384 -15.8995619  37.5899734   3.2857263 -16.7562332
  24.9648380 -27.8274994  16.7287502  25.0422268 -26.8724327  16.9431458
  24.4812927 -27.6946659  15.8550615 -24.6439342  28.2213116  15.6767817
 -24.6658649  27.9739933  16.5718040 -25.5446186  28.7051544  15.6514864
 -27.8214645  -9.3074627   6.9211698 -28.3253822  -9.2150545   6.0641179
 -27.2949867  -8.4615774   6.8616281  15.9744167 -18.5871849  -3.8274856
  16.2853222 -18.6630955  -2.9016113  16.0473881 -17.5809364  -3.8616223
 -21.9258709  -1.4225199   3.4457173 -22.5713253  -1.2417452   4.1175389
 -21.7625179  -2.3761771   3.5645068  -9.2577772  36.5701828  29.5933895
  -9.9600573  36.3223000  30.2234917  -8.9134912  35.6235962  29.4557304
  28.2623959 -24.2490788 -21.5784206  28.7106113 -24.9934616 -21.2337589
  27.4488068 -24.1918488 -21.0244770  18.6471653  37.6760445  22.3940964
  17.7126923  37.8374023  22.0206490  18.4795303  38.0248642  23.2716789
  -5.5814781 -43.9421501 -16.8509083  -6.4085798 -43.6712761 -17.3378067
  -6.0567102 -44.6931686 -16.3767910  11.0519104 -15.3944635   8.1329575
  11.6299047 -15.1729746   7.3958120  11.4149847 -16.2292309   8.4732485
   9.2599573  -0.3380279 -49.4364853   9.2587671   0.4962159 -48.8933601
   9.0571012  -0.0273967 -50.3086433  -2.8265994 -38.4687233 -22.4436760
  -2.1527154 -38.0210114 -22.9999027  -3.5322142 -37.8369064 -22.3869610
 -43.5281448  -1.4327180  23.5959034 -43.6724434  -0.6823676  24.2618389
 -42.5617981  -1.4432919  23.4917431  -7.9625106 -18.1536217 -11.9676313
  -8.8995390 -18.2762299 -11.9151239  -7.7303557 -18.1829052 -10.9817276
  42.2844276  18.6197529 -26.1013107  43.0066910  19.1790848 -26.5195332
  42.8266220  18.0681133 -25.5001850 -41.4318504  -2.4695363 -26.3080406
 -41.4170341  -1.7521162 -26.9597511 -41.7668037  -2.0560806 -25.5099316
  -4.8887253  21.8092728  -4.1516128  -4.1132336  22.0906334  -4.7257242
  -4.5623708  22.2007866  -3.2832398  21.8040504  -3.8604939   4.7779675
  21.0780334  -4.4458113   4.8698616  21.3895969  -2.9709232   4.7361250
 -22.8837814  23.0626850 -28.5084820 -22.7734928  23.9791222 -28.2615623
 -22.1122398  22.6623821 -28.0980358  14.5038538  17.0485134   1.7949564
  14.8302889  16.2432537   1.3393402  15.0653601  17.0303574   2.5909371
  35.7273102   1.1941023   5.7891269  34.8734055   0.7587506   6.0655799
  35.4866638   2.0938737   5.9808517  32.8677406  26.4423561   3.4218757
  33.8474274  26.4641132   3.2386243  32.5754471  27.2520542   2.9860549
  24.6022396   1.7829040 -10.0583591  24.9967804   1.4169067 -10.9049854
  23.8750229   2.2567456 -10.4418430  26.1826229   9.5462198  17.1018620
  27.0250816   9.2794800  16.7645836  25.6107922   8.9340048  16.5864773
  -2.8109753 -14.2952986 -14.9686394  -3.3834069 -13.7741308 -15.5366497
  -2.9751222 -15.2370234 -15.3743944  39.7089653  15.8292532  -4.9912114
  38.9511375  16.1233616  -5.4897547  39.2763100  15.1281080  -4.4209614
   9.3284340  -0.6152658 -44.0405426   8.6718044   0.0984325 -44.3159180
  10.0689335  -0.2853244 -44.6107903   0.4334708  10.4863920 -18.0694847
   0.6270105   9.7940903 -17.4483757   0.7923796  10.1726418 -18.8796787
  -1.6694113  -9.5766726  21.0775909  -2.6270373  -9.2345276  21.2165356
  -1.2656746  -9.1758528  21.8676243  22.4981117  -0.7490208  12.6201525
  22.8358784  -0.3336820  11.8094139  23.2476768  -1.2723824  12.9398870
  28.9839706  17.3524418   0.2542588  29.0330677  16.5735264  -0.3753078
  28.4430199  17.8897648  -0.3756813 -25.2901173  23.6177731  16.7966499
 -24.4374714  23.9332180  17.1283131 -25.2102737  22.6919346  16.7494869
 -15.9267511  37.4248390 -15.5095158 -16.0536594  36.5547218 -15.9245615
 -15.4501677  37.8766441 -16.2619438  16.0409718 -37.2661171   6.2157679
  16.3808308 -37.8983688   5.5231543  15.3088102 -37.8213043   6.5886583
  10.0397673 -28.5939064  -8.6178942  10.5078754 -29.4384193  -8.7330017
   9.2666025 -28.8660240  -8.0408049   4.5253296  -2.7787089 -34.9243584
   3.6338902  -3.0321271 -35.1740227   5.0384488  -3.3653953 -35.5327339
  27.8253918 -22.3978882   4.6462770  27.8007355 -23.1529961   5.2136707
  28.6815853 -21.9842205   4.9581847 -13.9928322 -27.4266033 -23.2214336
 -14.8919315 -27.7246780 -23.3849201 -14.0307426 -26.5044556 -23.5370121
 -38.1623802  -6.4732699  30.8487759 -38.9820862  -6.0195427  30.5432396
 -38.2892799  -6.3428640  31.8358326  23.5476265 -32.6019592   6.7502503
  22.7962227 -32.1155739   7.1999755  23.4744549 -33.4091873   7.2651243
  -6.8522811 -16.5933552 -30.5239677  -6.6366019 -15.9350357 -29.8303699
  -7.6779618 -16.2375870 -30.8595867   2.5750763  46.8371887  14.4036541
   2.6565890  47.6973724  14.8392429   1.8691140  46.4086952  14.8930664
 -18.5256786  25.6096973  40.8445129 -18.6226997  26.2878246  40.1540451
 -18.7420216  24.8115196  40.3789711  24.0035820 -32.1552086 -13.1284657
  24.7008114 -31.7417431 -12.5389004  23.2636108 -31.5417900 -12.9819317
 -23.6241589   4.2070384  -8.6346159 -23.1435966   4.3407130  -9.4370813
 -24.5386982   4.1332259  -8.8740339 -27.9653740  15.5679274 -25.8087254
 -28.3195381  16.3388309 -25.2893391 -27.1121712  15.4162207 -25.3847733
  33.1083450 -10.5824022  -7.0139298  32.2914429 -11.1648569  -6.8761735
  33.4496498 -10.6264658  -6.1435947  -5.4957762  19.5032806 -23.8907738
  -4.9306169  19.0310001 -23.2310886  -5.3377428  18.9660625 -24.6260052
 -14.0493917   3.3066671  18.2782955 -13.1286707   3.1058640  18.5883560
 -14.3646078   2.3620574  18.2152023   3.3483896  16.6047554 -31.3214645
   2.9985697  17.0713043 -32.0625267   3.3670611  15.6924438 -31.6391315
  -2.6860297  -0.6679601  -2.7350636  -2.7527459  -0.7536379  -1.7382144
  -2.0923908   0.1226189  -2.7573214  -2.8855646   2.4249713  -4.5082250
  -3.7388554   2.6642377  -4.8826227  -2.4606743   2.1335862  -5.3266997
  27.4952354 -16.1458359   0.8279857  26.6974525 -15.6525583   0.6747923
  27.2344437 -16.9356861   0.3641707  23.8899174 -34.7068939 -32.5493546
  22.9456310 -34.5084610 -32.8905945  23.7610111 -34.1844177 -31.7439175
   0.8516325 -35.5443153   9.6578712   1.3322370 -36.4406509   9.7604818
   0.3190119 -35.6620293  10.4605742  -2.1849151   1.8833359 -52.0178757
  -1.4850401   2.2072990 -51.3668213  -2.6608665   2.7194154 -52.2223930
 -35.6027603  10.5668325 -33.2320518 -36.0226746  10.1496077 -32.4673615
 -36.0381546  10.0484562 -33.9494514  -6.6151509 -31.3289127   3.4156721
  -6.5713263 -30.9068909   2.5199766  -6.0183964 -32.0536156   3.2794244
  24.3963528  -2.9865880  44.3836327  24.6621342  -2.2524614  43.8370399
  24.4813309  -3.7203715  43.7376289  37.5160522  25.3660259  -5.0829997
  37.3911781  24.4117146  -5.2823653  36.7623138  25.7498264  -5.6591754
   1.2039235 -13.4380140  22.9844398   0.5529790 -13.2361078  23.6480503
   0.8968936 -12.9065094  22.2620792  -5.3938990 -39.9966660 -24.7970161
  -4.8478236 -40.2110023 -23.9913349  -4.8008633 -39.3227501 -25.1640682
 -38.4933395 -11.8177214   7.8974195 -39.3257561 -12.0227003   7.4032521
 -38.2939148 -12.7845049   8.1002636 -33.7120209 -32.9249191 -14.2293301
 -32.8499260 -32.6262970 -14.5709152 -33.8060379 -32.2380524 -13.4578981
   7.9637237  -5.9368124 -40.1492386   8.8301191  -6.3553662 -40.3349953
   7.5458384  -6.1509624 -41.0656395  22.7913475  42.3641281  -7.8009887
  23.1564159  43.1971130  -8.1124916  22.9497051  42.3536758  -6.8968973
  -1.9362117 -11.7048635  -4.5088844  -1.0718298 -12.1385098  -4.6802893
  -1.8174454 -11.5835896  -3.5406058  31.6690941   4.6253629 -14.2191095
  31.3880959   3.7261240 -13.9431152  30.8177891   4.9154100 -14.6251755
  33.5111847  13.3660841  13.1932583  34.0079002  12.6062899  13.3925400
  33.2546844  13.6470909  14.0991497 -11.2999582  -3.7165165 -19.2231178
 -10.5431814  -3.2015133 -19.5034084 -12.0232477  -3.2973540 -19.7607231
 -14.7328358 -47.9287682   9.2924900 -14.5330095 -46.9737663   9.2828436
 -15.2432356 -48.0182571  10.0795040 -31.9176388 -16.0844631  -3.5374501
 -30.9763966 -15.8874683  -3.3145256 -31.8993206 -16.1918011  -4.5070601
  -6.5117955  13.7443695 -39.1181831  -5.5900397  14.1545525 -39.3989754
  -6.6519780  14.3251600 -38.3320312 -23.9967537   5.2203932   8.5912075
 -23.7266521   4.4956536   9.2370996 -24.6085587   5.6902976   9.2514811
  18.3603554  34.6943779   1.5032451  19.1715946  34.8870239   0.9297855
  17.8745060  34.1401978   0.8456689   0.7318750 -26.3409481 -27.0737400
   0.7346497 -26.0444813 -27.9670715  -0.1867321 -26.6830978 -26.9369564
 -19.3481617  12.7560120 -24.3443356 -18.7283821  13.4144869 -24.0272198
 -18.9523621  11.9348145 -23.9047432  14.7005072 -20.7322941 -32.5909157
  14.4458218 -20.9866753 -33.4742966  14.1455679 -21.3780212 -32.0944824
  12.4640799  -3.7370820   3.8948183  13.0407286  -3.1720283   4.4599028
  11.7343836  -3.1011479   3.6863739 -14.1815243 -24.8369217 -24.2178154
 -14.6001501 -23.9990425 -24.4288769 -13.5500574 -24.8897839 -24.9859333
 -30.8564987  19.3438072  30.6638756 -31.6141319  18.9258041  30.2598972
 -30.0721493  19.0362530  30.1354961  -3.5321271 -14.9015102   1.0009242
  -3.4124863 -13.9166899   0.6025690  -2.9759350 -14.7741699   1.7595257
 -15.8559494 -16.1580067  -2.1368196 -15.3874159 -16.1881847  -2.9681463
 -16.0923252 -15.2305202  -1.9734929 -11.3689928  35.0487289  24.1048241
 -11.2161713  34.1825981  23.6291294 -12.2963581  34.9111786  24.4275570
 -28.4045563  31.0530796 -19.8934116 -28.9356785  31.7741070 -19.4828663
 -28.0027390  31.5035915 -20.6564598 -19.7615376 -17.0319519   0.4731651
 -18.8665543 -17.0368462   0.9535148 -20.3214607 -17.0649281   1.2260201
  12.6146355  -6.3993859  -6.5491767  13.1465082  -6.0788817  -7.2942505
  13.2121277  -6.5799465  -5.8373022   0.0320524 -23.4320030 -38.7754707
   0.0980285 -24.3664150 -38.5040512   0.9582654 -23.1239395 -38.7606735
  32.4939499 -17.6673985  -9.9073334  32.1203194 -17.6864223  -9.0596628
  33.1498222 -16.9176311  -9.8254738 -31.9151154  -9.1288767  -0.1696577
 -30.9389343  -8.9784231  -0.1189227 -32.1085205  -9.2206926   0.7960498
  -5.2431884 -38.7199135  -9.1746054  -4.7563133 -39.4738464  -9.5458879
  -5.5690312 -38.2043839  -9.9546089  -4.6365991  -6.7309117  31.8607616
  -3.9187636  -6.4681511  32.4636154  -5.0446863  -5.8195605  31.7322025
   8.9821959 -17.6079140  19.2146397   8.8747253 -18.5065498  18.9389954
   8.1396580 -17.4122353  19.6177673 -34.2230606   6.7699943  37.6102409
 -33.4994164   7.4979920  37.7263374 -34.5119133   6.6432962  38.5178909
 -35.3247871  12.8637943  14.4648228 -35.5052757  13.8455372  14.2586403
 -34.5773926  12.9987764  15.0928593 -35.5501022 -15.1658773 -11.7235022
 -35.9318810 -14.2891788 -11.7012796 -35.3877754 -15.3295240 -12.6758461
 -11.5367336 -26.7572002 -24.1076889 -12.3424196 -27.1850815 -23.7647915
 -11.7651453 -26.5544529 -25.0281734  -1.9212182 -16.7037201 -29.9037418
  -1.1753738 -16.2775173 -29.3851910  -2.4449775 -15.9201088 -30.2045288
  11.5334454  -0.1259077  12.8580666  11.4463158  -1.1397865  12.9334831
  11.3259516   0.1134794  13.7995577 -14.6001348  30.7645626  10.8339462
 -14.4668503  31.4052563  10.0847969 -15.4101639  31.1428223  11.2172203
  16.6308804 -13.2038288 -28.2089920  17.4543285 -12.7019596 -28.1210041
  16.8561020 -13.8444242 -28.9029388  18.4983234 -12.6943331  -0.0067313
  19.0953102 -12.0197849   0.4395018  18.0499229 -12.9734068   0.8140931
   3.2277098   6.5532546  -7.2847686   2.2539468   6.2900510  -7.2724833
   3.5394633   5.7080674  -7.6074076 -23.9390812 -27.1216717 -26.5310268
 -24.8335228 -26.8610134 -26.5273037 -23.8241920 -27.3167725 -25.5478573
   4.6300077   1.3869027 -32.3096657   5.5275264   1.0287399 -32.3334198
   4.1663260   0.7074973 -31.7752552  -3.6250241  -2.8164887   2.8779361
  -3.7491760  -2.6573169   3.8201370  -4.4441018  -3.1752958   2.5885820
 -18.5533199 -23.9584332  23.3567238 -19.5441132 -23.9341240  23.5130253
 -18.3831940 -24.9127560  23.4977303  19.5678215 -27.0036831  23.6389732
  18.6345520 -27.0958366  23.6970158  19.7372723 -26.5069370  24.4555874
 -36.3464813   6.6031389 -37.9949226 -35.6478806   6.7681336 -37.3519363
 -36.8288841   5.8756542 -37.5815201  39.9567261   8.7513781  19.3197422
  39.8406219   8.3078699  18.4396744  40.1783333   8.0099468  19.8936634
 -15.7357826   8.5536280 -28.6649685 -15.8737745   9.4849758 -29.0540295
 -14.7985477   8.6737328 -28.4522648 -39.7945900  19.1865311 -24.0352402
 -40.7460861  19.3732491 -24.2402859 -39.6257782  19.9930286 -23.4714146
  40.5087318 -27.2391186  -2.6155329  40.6448936 -27.6421680  -1.7554085
  40.4191704 -28.0437241  -3.1820743  -3.9988432  -7.3368449   9.4719772
  -3.7478364  -8.0958204  10.0023766  -3.6306062  -6.6124620   9.9526176
  18.9569054 -16.4774227  46.9499283  19.2197571 -17.3497944  46.6002922
  19.3952198 -16.5263786  47.8791428 -13.1439676  -2.1105652  13.0939054
 -13.8700619  -2.7091575  12.7877426 -13.1224518  -2.3448470  14.0748463
   1.2333766 -21.4481468 -14.5736609   0.9674589 -21.6740341 -13.6589546
   0.3277250 -21.5046024 -14.9942951  -6.0749569   1.1834382  12.5988989
  -5.0751033   1.1996709  12.7350140  -6.2966647   0.2217692  12.7200413
 -13.1662979  22.6464958   2.9443939 -13.6229048  23.1926212   3.6133199
 -12.5290842  22.2689266   3.5630667  27.1834774  -4.6834526  16.3584442
  26.7563534  -5.4870667  16.6774960  28.1224823  -4.9918966  16.1813774
 -19.0028191  -1.3005368   5.0707455 -18.8902225  -1.6918207   5.9632387
 -19.8224983  -0.8382556   5.1346278  12.1887150  39.3782349  -6.6609964
  12.1172390  40.0897751  -7.3202720  12.0925570  39.8366013  -5.8120704
   1.9350678 -17.9387970 -28.0446930   1.1696951 -17.3814850 -27.7424736
   1.5667850 -18.8155537 -28.1691074 -16.9902172  26.7050438 -17.7815170
 -16.3924904  26.1966743 -18.3586388 -16.8911095  26.2381859 -16.9642048
   6.4535360 -20.7481346 -34.4881439   5.9210248 -20.5346489 -33.6562843
   6.1510158 -19.9855919 -35.0497437 -27.9555378 -17.3819408   6.5690432
 -27.6098595 -16.8194599   7.2913070 -27.9264050 -16.7124634   5.8193965
  19.2165699  13.1868238  33.3409386  19.5623875  12.3716230  33.7262383
  18.9627552  12.7836552  32.4451065  27.7035065   0.1502633  -7.2502384
  27.3307438  -0.7059643  -7.0386248  28.3295002  -0.0240967  -8.0053644
 -10.0545864 -13.6725998 -18.1499062 -10.1347723 -14.6021404 -18.4884472
  -9.7756109 -13.2330208 -18.9431019 -11.9095497  19.6439972   4.6641936
 -12.6126442  19.6571674   5.3095107 -11.6413240  20.5778217   4.6623273
  -3.6012812  18.1875839 -22.4976406  -2.9829421  17.6495457 -23.0065422
  -2.9945302  18.6526756 -21.8633003  26.1258411 -19.4207993   2.0475619
  25.4538479 -19.1712284   1.3313599  26.7776546 -19.8507385   1.4848177
  38.8097725  -5.4138269  -7.2383714  39.6832428  -5.8523483  -7.2787752
  38.9114037  -4.8554754  -6.4191518  34.5023689 -33.2861786   5.0798378
  35.0768051 -33.9542084   5.4413166  34.6812210 -33.3550949   4.1618404
  29.0488033   1.3906544  15.8808355  29.4762974   0.4780123  15.9350586
  28.2764111   1.2808142  16.4603920  41.3300056  -8.8850327   1.0669202
  42.1091347  -8.6171169   1.6078151  41.6209869  -9.7954187   0.8323545
 -16.8449574 -13.7540350  -1.1943231 -16.5322762 -13.6047802  -0.2548213
 -17.7289333 -14.1374836  -1.0015577  15.5256681   8.3064718 -13.2788992
  14.7171288   7.8092275 -13.1304865  15.3914022   9.0746651 -12.7500725
 -28.9086571  -6.0205035   8.2981901 -29.6952667  -5.8088899   7.7587309
 -28.2535801  -5.5984907   7.6522350 -15.0700340   8.7242889  47.9539413
 -14.1342163   8.7159262  48.2589111 -15.0182981   7.9896851  47.2737656
   8.7010918 -34.6830864 -26.3513718   8.1582355 -35.3929672 -26.7380028
   9.4886341 -34.7384796 -26.9610519 -28.0196362  34.4400520  -3.6577067
 -28.2891140  34.1817627  -2.7466736 -28.3718319  33.5878525  -4.0591755
  13.9667158 -29.5927658 -34.7259293  14.0482292 -28.6871033 -34.5316811
  13.0042868 -29.6771412 -34.8946342   0.1647739 -20.4826050 -39.5394897
   0.2877893 -19.5388432 -39.6915321  -0.5104684 -20.7080345 -40.1828804
  -9.9278517 -26.7661629   5.5601687  -9.7476053 -27.7214050   5.2800517
  -9.0377073 -26.4200897   5.3014226 -37.0251999  -9.1282206 -17.0870132
 -36.6835670  -9.8036184 -17.6774197 -36.4319267  -8.3772068 -17.3190441
 -22.9764194 -16.4877739  -2.5064485 -22.3647938 -15.7954416  -2.8426068
 -23.8319340 -15.9616442  -2.5885642  43.5131073 -14.1638842   5.8533673
  44.3225174 -14.4798689   5.3626981  42.9666023 -14.9258528   5.6771207
  -1.9055518 -15.5329580   3.1979215  -1.5556873 -16.4037380   3.3142405
  -1.0522177 -14.9725180   3.0780246  12.4534426 -11.1805038 -27.0537930
  11.6439943 -10.8736296 -27.4502220  13.1135530 -10.9609556 -27.7331562
  16.0154972  12.7833986  31.1609669  16.1929283  13.3164902  31.9617443
  16.9605217  12.4954309  30.9361305 -19.7476826  28.7865047   4.1228738
 -19.9243031  29.1207676   5.0159984 -19.3008633  27.9364567   4.3432322
 -39.2380600   7.7428532 -35.9323883 -39.3019905   6.9936762 -36.5816917
 -38.4575424   7.4217906 -35.4148560 -19.7607803  16.7623711  -8.9376497
 -20.2788925  17.1647396  -8.1850672 -20.5331554  16.7102413  -9.5600424
 -22.4306622 -25.4092331 -21.9648552 -23.0660267 -24.6549625 -22.0387440
 -22.7452183 -25.8513203 -21.1439075 -37.8624191  19.7782593   9.7053747
 -37.4856949  18.9927578   9.2801065 -38.4826965  20.0871754   9.0409145
  -9.2526655 -14.9188929 -29.3478851 -10.0965347 -15.3600359 -29.3125935
  -9.2171373 -14.5689163 -30.2491817 -34.3527107   5.9606113 -26.5940647
 -34.5757217   6.8762832 -26.5589256 -34.8455429   5.6836681 -27.3499432
   7.4086046  11.4058952 -27.9678440   7.0039129  10.5540791 -28.3818207
   6.7995777  12.0475082 -28.3782234 -35.2835693   4.4991870   5.2149277
 -35.5435371   5.4021316   4.9157233 -35.9460449   4.2830563   5.8544140
 -20.4708672  39.9132690 -26.3180962 -20.7267017  39.2257042 -25.6350079
 -20.9079781  39.6230011 -27.1090298  26.5157776 -20.7518044 -26.9829578
  27.2704830 -20.7947235 -27.6599941  25.9904289 -20.0570793 -27.4767971
   2.8281100  21.1713371  30.9714870   3.1111982  20.5590343  30.2812862
   2.8997033  20.5338402  31.7297478  36.0514984  12.0052738 -17.1290741
  35.0847855  11.9762754 -16.9143963  36.1201286  12.9764109 -17.3422585
 -31.5392075  29.2281208  -5.5965819 -31.3607903  29.6890392  -4.7306623
 -32.3705788  28.7502460  -5.3331623  26.4838009 -26.9579601  28.8434296
  26.7708015 -27.6758156  28.2201385  25.8924351 -27.4836273  29.4225464
 -26.4975739 -18.0514011  -6.8140135 -27.0058937 -17.6606560  -7.5310926
 -25.6357079 -18.2195206  -7.2887425  -9.0428648  17.3296223  -4.3926058
  -8.1286297  17.1615734  -4.6119533  -9.0109243  17.7126255  -3.4493208
 -12.4141293  42.5754128 -22.3291664 -11.4974499  42.7072258 -22.0362740
 -12.2347155  42.3421593 -23.2775879   1.9070401 -18.0669651  40.3950500
   1.3259392 -18.0265770  39.5942459   1.4950953 -18.8016148  40.9076118
 -20.9918804  33.3404427  25.0253868 -21.3210945  32.4250107  25.1690769
 -20.0941734  33.1237297  24.6556988   3.8985684 -31.9796925 -31.4903927
   3.9569447 -32.2344971 -32.4381523   4.7558661 -32.3223305 -31.1218777
  -5.5771289  -6.1340337  27.9565620  -5.1180234  -6.8582411  28.4574966
  -6.5205159  -6.2238207  28.2199688  -2.0251544   9.4723530  -9.6356773
  -2.2345746   8.6376066 -10.1489239  -1.3138415   9.0725527  -9.0651617
  -4.4903154  24.1195526 -16.6932240  -4.1203246  23.5289993 -16.0482731
  -3.9062748  24.9225693 -16.5858994  17.8273544  -0.2835216 -42.1684456
  18.6419010   0.1442793 -42.3655014  17.2573643   0.5013347 -41.9629555
 -36.0290146 -16.0514202  28.5208321 -36.6783028 -15.3782845  28.3277397
 -35.1958961 -15.6992359  28.1698608  32.6841621  21.6764717 -19.2666798
  32.3986053  22.5821571 -19.4359550  32.1375580  21.5186253 -18.4799442
 -27.6057796 -24.3389759  13.7462463 -27.4714966 -24.6885109  12.8590622
 -27.9567738 -23.4363594  13.4970331  15.2699318 -13.5271111 -25.8884468
  15.8152246 -14.2588835 -25.6240768  15.6951342 -13.2663860 -26.7594967
  31.7909203   7.6939692 -28.6842556  31.8960724   6.9550691 -29.4058151
  32.6544228   8.1178589 -28.8232059 -25.8144035 -35.1218567  23.9690952
 -25.7476597 -35.9162598  23.3948345 -25.6994762 -34.4035263  23.2661190
 -30.8478470   1.5921792  33.2621536 -31.1865139   0.6713391  33.2315865
 -31.6423569   2.1052704  32.9844398 -16.8531342 -10.4139071  15.1821318
 -17.6292019 -10.3328753  15.7116499 -16.1671066 -10.0016022  15.7604237
 -33.4850044  -8.8312140 -22.9952869 -33.1797905  -8.7927027 -23.9471989
 -32.9317589  -9.6387501 -22.7517643  25.8051662  23.8807297  -2.5616508
  25.5333786  23.0645485  -3.0185680  26.1156979  24.3707085  -3.3783622
 -34.1566582  -0.5547328  20.7537212 -33.8199043  -1.4056220  21.2271614
 -33.6805229   0.0906789  21.3540497  17.7299099   9.6935272  14.2497740
  17.5432587   8.7952003  14.0999804  16.7916164  10.0611496  14.2846050
  -9.5351448 -29.3312435   4.8583679 -10.1923561 -29.9198322   4.4487810
  -8.9016514 -29.9717083   5.2701373 -23.5791550  21.8068447 -35.1798973
 -23.0843811  21.0400085 -35.0561905 -23.9244499  21.7140541 -36.0776138
   0.3874193 -14.1886539  32.9656677   0.0899767 -15.0874958  32.6813774
   1.3419992 -14.4074745  33.0742378  30.3850193   5.8754950  37.9435310
  30.7968102   5.0436840  38.2516174  29.8113956   5.5469508  37.2570572
  28.6583805  26.2046604  25.9813251  28.3010960  26.2256966  26.8649807
  29.5882435  26.2199440  26.0804062  -0.7693061   3.8077569  25.6279945
   0.2185998   3.7275612  25.8177395  -0.9113299   2.9340210  25.1835537
  13.8032608  -1.7403284   5.5108542  13.7407799  -0.9199423   6.0340395
  14.4694080  -1.4489937   4.8266587  26.5941601  -2.0866683  16.4252357
  26.0199318  -2.1114671  17.1743431  26.8011417  -3.0639155  16.3245125
  12.5043631  23.4596710 -29.3945274  12.7260113  23.2511921 -30.3530827
  13.2956915  23.9711971 -29.1145573   9.8334160 -30.7224102 -12.1961145
   9.3528404 -31.4116859 -11.7266397   9.1811066 -30.0124950 -12.2982779
  -4.6125369 -18.6324100 -28.9444656  -4.9748068 -19.2163105 -29.6469879
  -4.0617766 -18.0468750 -29.5178432  15.9455156 -18.1644688 -31.6556721
  15.4549036 -18.9904957 -32.0054893  15.6865320 -18.2372818 -30.7347546
  33.7328148 -24.9105148   1.7962525  33.3805389 -25.3467617   1.0450855
  33.1381035 -25.1506042   2.4833181 -25.1743183 -35.0372772   1.7400504
 -25.3978291 -35.9616547   1.4509362 -25.4137878 -34.4701653   1.0126221
  32.9332390 -15.3086634  -4.7433076  32.4537354 -15.8799696  -4.0740800
  33.5740356 -15.9985399  -5.0825868 -40.2063065 -29.8322639  14.7006407
 -39.9648018 -28.8970909  14.6647272 -40.3166809 -29.9942188  13.7260542
  10.0266123   7.5297880  16.3665829  10.7505713   7.6251807  17.0122128
  10.4681606   7.2862597  15.5699377 -25.3282642 -30.7505512  13.2912045
 -25.7211761 -31.3317928  14.0317736 -25.6099110 -29.8678741  13.6400805
  38.7888451 -20.2060337 -27.9092255  38.8448982 -19.2568645 -27.9071331
  38.3825912 -20.4184608 -27.0492764 -15.9001112  18.5711098 -21.4864216
 -16.1548977  19.4346485 -21.9209290 -15.2622347  19.0112953 -20.8210869
  41.8752174   4.3578877 -22.4009914  40.9610329   4.4311557 -22.5984211
  41.9562569   3.5058663 -21.9390068 -37.7709885 -24.4040108   5.1948299
 -37.8732300 -23.9589882   6.0819740 -37.4336548 -25.2658005   5.4328613
  -4.3012052  25.1656704  -9.4540739  -3.4832592  24.8072472  -9.0873032
  -4.8102508  24.3375130  -9.7038860  41.2650757 -23.6912518   6.0771766
  40.7246513 -22.9392395   5.7472610  41.2917480 -23.4497204   7.0301881
  26.0150909 -17.6730042  -1.2300473  25.4561234 -18.3622074  -0.8803220
  26.6263485 -18.1804924  -1.7875228  11.4001932  18.8579178  17.2891197
  10.6123543  18.9554501  17.8041992  11.7384071  17.9871960  17.6470642
  11.3630571 -30.8625584  -9.3178558  12.2601328 -30.6405830  -9.7167044
  10.9588490 -31.4096184 -10.0605383  36.2301254 -18.1142044 -13.3595142
  35.6824455 -17.9968319 -12.5297422  37.1045227 -18.2786102 -12.9218674
   4.6665888  41.6326027   5.9025497   5.2446990  41.3292999   6.6444769
   4.8594775  42.5640526   5.8686352  -1.7134559  11.4752045  32.5852509
  -2.4114342  12.1983986  32.6410522  -2.1523397  10.8931713  31.9309235
   2.4608245 -27.8464966  12.1885004   2.7640953 -27.2994957  12.9582891
   3.0512326 -27.5260201  11.5011425  14.0218735 -34.3324699 -31.6085663
  13.6947565 -34.8210907 -32.3896828  13.5758018 -34.8221054 -30.9054050
 -13.8865433 -19.6652508   9.9485989 -12.9168768 -19.6014462  10.0724306
 -14.0415554 -18.7917500   9.5614510 -22.1117153  -0.0401568  40.5354805
 -21.9322395   0.8761773  40.2109108 -22.9877472  -0.2023962  40.1500397
 -12.9558859   4.1348944  29.8234081 -12.2714434   4.0814538  30.5427742
 -12.5757208   4.8204412  29.2388477 -17.4545574  11.5488214  -2.1315410
 -16.7720661  11.4602070  -1.4498233 -18.2504120  11.5581942  -1.5677531
 -28.6222439 -20.6663914  -6.3703475 -28.0316372 -20.5034122  -7.0919766
 -29.1297207 -19.7947693  -6.3816962  15.2630014 -11.1156702  -0.8255380
  14.8692970 -12.0081615  -0.7324237  14.6899567 -10.5970516  -0.2211585
  30.6961613 -11.2758827 -22.4674110  29.9214363 -11.5271893 -21.9535007
  31.3910770 -11.3727083 -21.7777157  26.7142353 -25.8328724   4.4410257
  26.8305302 -25.6657791   5.3705206  26.3468342 -26.7811184   4.5217943
  -1.6820103 -21.6240749  -1.0818628  -1.0559349 -21.7995892  -0.3063893
  -1.0161250 -21.2121544  -1.6623434  -0.1334953 -36.3475647 -12.2675343
  -0.3200707 -37.0581665 -11.6054430  -0.2190390 -35.5289078 -11.7528162
   7.7006545  -3.1038065 -17.8838329   8.5057449  -2.5775239 -17.6296749
   7.2810078  -2.4341934 -18.4901905 -31.9988575 -32.8081779  11.2506466
 -31.7162762 -33.4582100  11.9421587 -31.1474457 -32.7635078  10.7572842
 -28.6602993  13.3020678   9.4837523 -28.0364628  13.6436996   8.8579969
 -28.1408291  13.2226562  10.3081799  30.3656425   6.4457436  -2.9094253
  30.9099007   6.9347334  -2.1337078  29.4664078   6.7450666  -2.5485132
  32.3272820 -33.1363335  18.0870457  33.0250816 -32.6149483  18.5482731
  31.5809193 -32.5633698  18.3216209  -5.2278066  31.9430923   6.6334729
  -4.3707299  32.3229256   6.4263206  -5.8339257  32.5268745   6.1567645
  -5.7581677   2.3161929 -47.8501167  -5.0227146   1.5985744 -47.9304123
  -6.0153337   2.0621769 -46.9620667   7.5153527  -2.8001940  46.6355286
   6.9317136  -2.5097134  47.3541565   6.9008632  -3.1841683  46.0127754
 -20.4950428  28.9279652   7.2788591 -20.1115665  28.8718739   8.2009382
 -19.7782078  29.5777340   6.9304180  -0.6088764   5.7060928 -51.0403862
  -1.1703236   6.4721236 -51.2345428   0.1095320   6.1116047 -50.5011635
  31.7626362  23.7707977  24.5493679  32.3665123  24.4854565  24.8493290
  31.3789825  24.1794777  23.7653027   1.8999302  17.0778255  15.8195000
   1.2029092  17.6507034  16.2265015   2.4335842  16.8152237  16.6175747
  28.7734547  29.4871616  -1.4687358  29.6098557  28.9955540  -1.5272577
  28.2531242  29.1271477  -2.1826744 -14.4621868 -19.0748310   7.3642693
 -13.9559689 -19.3784866   6.5557775 -14.3761253 -19.8800411   7.9187155
  38.1458740  31.2364235 -18.9936981  38.7014160  32.0423203 -18.8534756
  38.4386101  31.0645638 -19.9083519 -19.9825001   6.2853332   1.6688806
 -19.4793510   5.6309958   1.0704274 -19.3449554   6.9732780   1.8217975
  -1.1581519  14.4480610  -3.5032494  -0.5758405  14.7292328  -4.2783852
  -1.9162889  15.0393839  -3.7736630  20.6016064  22.8791485 -11.3907471
  20.9693604  22.5903244 -12.2455349  21.2199364  22.4852886 -10.7516594
  30.4710789  25.1430321  22.7133274  30.2884979  26.0517254  23.0064220
  30.7399406  25.3623352  21.7689819  21.2079067 -27.5766716  31.8972988
  20.4162846 -27.7793331  31.3261223  21.7253399 -28.3826427  31.8498859
 -22.0838718 -16.1111164  24.5043068 -21.7569695 -16.8022461  23.8986225
 -23.0768776 -16.2603893  24.3693180 -18.2149944  37.7683067 -19.2423553
 -17.2084141  37.8210258 -19.1332664 -18.4274197  38.5398445 -18.7100735
  13.9702864 -16.3246193 -27.7905407  13.2053490 -15.7873316 -28.1153564
  14.6026907 -15.6724691 -27.4074821  16.8105412  -7.9326115 -42.5311966
  15.8010874  -8.0887213 -42.6791077  16.7700005  -7.4187307 -41.6865997
  34.6954956 -25.5606422 -15.4728603  34.4140396 -25.0449867 -16.3007317
  34.1833878 -25.0272026 -14.7946577   5.7016277 -32.5958481  16.5001583
   5.4022059 -32.5788498  17.4265060   6.2493949 -31.7850494  16.4270973
 -10.0350533 -31.4070816 -14.8838854  -9.4795532 -31.5665398 -15.6676722
 -10.2668409 -30.4783478 -14.9678764 -11.2102108  -9.2629280  23.8723526
 -10.8254051  -9.5834484  24.7230988 -12.1176882  -9.0521173  24.1174374
  18.1763649  41.8277130 -16.7063370  18.8545856  41.6753998 -16.0755997
  18.4424782  41.2037086 -17.4108315  10.9891157  19.5289860  29.2221336
  11.5962420  19.5776577  28.4263344  11.3819284  20.1804962  29.7806454
  17.0081024  13.4842167  15.1379070  17.8838120  13.0194721  15.0214729
  16.5163479  13.1791105  14.3506508  10.1970329 -17.9973183 -40.3966827
  10.7082558 -18.8483238 -40.5588074   9.9974442 -17.7565002 -41.3162880
  13.1042156  -7.9170995  14.1203012  13.1910982  -8.1278229  13.1866131
  13.3994350  -8.8225641  14.5072269  13.1829739  -1.6193820 -17.7741318
  14.0078707  -1.4933103 -17.2977047  13.4226532  -2.4701138 -18.2214890
 -42.3717079   3.7867422  31.2394638 -42.3970909   4.7419391  31.0176945
 -41.4356461   3.6170313  31.2695694 -26.9055271  -5.0699248  29.4603081
 -27.2133312  -6.0237050  29.6432953 -26.4362640  -4.8799977  30.2841110
  37.5753365 -14.1868992  17.4155159  37.9111938 -14.9837446  16.8938713
  37.6218338 -13.5113420  16.6574936 -17.1190205 -12.7060547  40.4690552
 -17.3211842 -12.1455889  39.7049904 -16.3619747 -13.2732410  40.1759682
 -15.5308638 -33.7405663  17.6503105 -15.1100740 -33.3784866  18.4308434
 -14.8185873 -34.2980385  17.2382202  -3.7738934  12.3572741   2.3283727
  -2.7409825  12.3481302   2.4413145  -4.0303817  12.7183094   3.1766939
   9.0914326  33.1161194   0.2418243   8.9015703  32.9269638   1.1836636
   8.9863462  32.1958237  -0.0969096 -13.7315588  17.0316811  34.1641273
 -13.3013859  17.4623566  34.9236488 -12.8998556  16.7777367  33.5871239
  24.5852757 -25.0213699  -1.4141752  25.2196465 -25.0908375  -2.0993609
  25.1281071 -24.8761082  -0.6438587 -25.1642361 -39.4390831 -13.2882328
 -24.9748821 -40.0989075 -12.6351881 -24.8976879 -39.8013229 -14.1609373
   3.2727442 -24.0174389 -32.7699852   2.5010407 -23.4143887 -32.5589981
   3.6459868 -23.4275112 -33.5116692 -16.6752548   7.6383662 -23.9034538
 -16.1082134   7.1106019 -24.5034790 -16.1933441   7.5074406 -23.0370922
 -11.3895683 -27.4750443  27.1533566 -11.0650797 -28.3996525  27.1423759
 -11.5413923 -27.3152790  28.0799236  -5.4412322   4.5413165 -49.3203087
  -5.7354884   3.6741073 -49.0659256  -5.1670151   4.8954391 -48.4362869
  16.1456394 -38.2179871 -25.1005459  16.4195747 -39.0585136 -25.5134716
  15.3253603 -38.0423088 -25.5710297 -15.5843105 -42.6378174  -1.1542759
 -15.4915638 -41.9533730  -1.7947567 -16.3365803 -42.3170242  -0.6190075
  -9.5458908  -8.0617943   2.7027617  -9.4697781  -9.0142260   3.0066135
  -9.9107571  -7.6529498   3.4890604  -6.9666529 -21.4746017  27.7782917
  -7.4820700 -21.8560581  27.0035095  -7.1408825 -22.2516136  28.4242878
 -27.4767952  -1.9703168  20.3854465 -27.2136459  -1.2965086  21.1222782
 -26.7852936  -1.7123797  19.7371387 -42.7866821   9.6077166  -3.3856237
 -43.4850006  10.1949100  -3.0360799 -42.3339882  10.3125935  -3.9740331
 -21.7570858 -32.7398033   2.1694665 -21.3339329 -32.5043221   3.0507874
 -22.6426086 -32.5225220   2.3344104  -2.0649774  -5.9723029  28.3341236
  -1.6375194  -6.7650719  27.7964802  -2.8355191  -6.5513997  28.6155891
  32.7515297 -12.7178421  16.0466652  32.9280891 -11.8708134  15.6832361
  33.6592979 -12.9083481  16.4565926 -12.5803986 -20.2166958  13.5748663
 -11.9860401 -20.9232750  13.2501364 -13.4065666 -20.6473026  13.6802254
   3.4401698  40.5764923  -4.4402690   3.6075399  40.9038963  -5.3757548
   3.6842685  41.4479523  -3.9800875   1.8147101 -35.4326591  13.4411249
   1.0404069 -35.7800140  13.9413958   1.5323077 -34.4745712  13.4466248
 -43.3207970   5.7745895  17.6526604 -42.5732269   6.2516580  17.2707481
 -42.9361992   5.4899530  18.5581474 -38.1172943   2.0733180  -1.4200962
 -37.7096024   1.5846323  -2.1626244 -38.4964523   1.4306548  -0.8717569
  13.4514952 -19.5481339   7.6511450  13.5873985 -18.7533932   7.1416850
  13.7730293 -19.3971615   8.5197639 -25.4878082  18.3558941   6.3880577
 -25.6009655  19.3498344   6.3371711 -26.1678619  18.1021996   5.7916131
   9.5324392  41.4780807  24.9800663   8.7071409  41.0917053  25.1992302
   9.9466105  41.4931831  25.9186783   7.5929174 -41.8070908 -21.8281918
   7.5835915 -41.8619156 -22.8260212   7.1400700 -40.9024162 -21.7479591
 -21.8182621  -0.0545771  20.5733471 -21.2250824   0.3996503  19.9010201
 -21.6261292  -0.9754080  20.3020039   0.4091422 -26.0732689 -13.8988523
   0.3788560 -26.2257671 -14.8188896   1.3205758 -26.4483643 -13.6570053
  24.9251575  41.0900421 -14.9871149  25.2481422  41.2238960 -14.1119452
  24.6228580  41.9004250 -15.2962790 -10.1182976   0.5466906  -3.4033706
 -10.6263380  -0.3057966  -3.1986313  -9.3160143   0.1362253  -3.7816222
  31.3769722 -21.3291073  14.8045063  30.9495068 -20.8043995  15.5398054
  31.7377186 -22.0040417  15.4371157 -12.9214573  -3.1944044  15.5304604
 -13.3646555  -4.0977726  15.5568552 -13.4411383  -2.7709599  16.2182369
  -6.8828635  32.7318726  32.1848869  -7.0586715  31.8859787  31.7097416
  -5.8991103  32.6799507  32.2577019  27.7167873  23.1203651  -6.7423096
  27.0032463  22.7608433  -7.3618150  27.2737541  23.8732529  -6.3451648
  -3.4650929 -43.7750244  -4.0229335  -2.9616396 -44.5121460  -3.5368550
  -4.2602906 -44.2907791  -4.2813597   9.2107744  36.7150650  18.9398575
   8.8166571  37.4962807  19.4385338  10.0374537  37.0705566  18.6880569
  40.4336548  21.2513409  23.0107136  39.6292076  21.6626472  23.2366142
  41.0353203  21.3743038  23.7465172 -22.5809555  10.3980608 -20.9354630
 -22.9196930  10.1285648 -20.0697384 -22.1019402  11.1800013 -20.6794415
   0.9925735  -2.1625745  44.6385880   1.2341734  -2.9735987  44.1174240
   1.0844632  -1.4947720  44.0147285   5.1802945  21.2238388  34.3981361
   4.8358245  22.0789661  34.7687645   4.4937220  20.9335442  33.7960281
  37.5168076 -32.7645836  18.1885662  38.3986092 -32.5577011  18.6074314
  37.7128830 -33.7015343  17.9330750 -10.0585880  14.7476292  19.7586384
 -10.3121691  13.8043823  19.6220818  -9.1603708  14.5841904  20.1833878
  -1.7384230   4.7068505 -15.0432491  -1.5865862   4.0524850 -15.7610683
  -2.0990088   4.0285273 -14.3189592 -35.1260872 -19.3588028 -23.9762077
 -35.8315201 -19.7700405 -23.3725758 -35.2961922 -19.8545113 -24.8149681
   1.3611877 -25.0526600  27.8818913   1.9253266 -25.5858784  27.2842770
   0.7133808 -25.6780891  28.1378231  14.4600000 -29.1734447  24.4404964
  14.5353212 -28.8920288  23.4770184  13.5594072 -28.8090153  24.6098557
  22.3822994  -7.3479586  27.4253139  22.1914253  -6.5283556  26.9345207
  21.5255795  -7.5440345  27.8175106  11.7259169 -18.6631889  16.8927059
  11.7477760 -17.8052731  16.4361324  11.6590090 -18.5088520  17.8241405
 -17.0159855  20.7836475 -22.6481953 -16.6801453  21.0833416 -23.5443058
 -17.9733639  20.8508663 -22.8502579 -15.6477585  -3.0183549  12.1148520
 -16.4333916  -2.4674816  12.1919603 -16.0867252  -3.8061903  11.7646236
  -5.9142208   4.6489449 -23.8653851  -6.3937702   5.3820109 -23.4068966
  -5.6951647   5.1926432 -24.7235088 -41.1922073  10.6052999  -8.4086027
 -40.8273048   9.9113607  -8.9974060 -41.7113266  11.1720858  -9.0437021
 -13.7420759 -26.3856964  22.9799347 -13.2958221 -26.9931259  22.3254070
 -13.0359421 -26.3162174  23.6581516  40.7383156  -2.4777155 -20.2912273
  41.1110535  -2.8057413 -21.1311226  39.7964592  -2.5530541 -20.4694157
  25.4135170 -22.0728436 -23.6947250  25.4434357 -22.4611130 -24.6070061
  25.0289631 -22.8533020 -23.2453976  -8.4690189  -1.5953757 -36.6964340
  -9.0771170  -0.8387826 -36.4975433  -9.0318861  -2.0208406 -37.4058304
   3.5691423   8.1324558  18.2843914   2.8769364   7.4666424  18.3830547
   3.8292038   8.0256433  17.3788872  11.2420826   0.3113987 -16.8118744
  12.0350246  -0.2413381 -17.0945721  10.8247309   0.3643799 -17.7325287
 -43.2500305 -19.0134449 -10.8637495 -44.0497780 -18.4532948 -11.0526047
 -42.5836868 -18.5457382 -11.4244385  27.2677708  37.3094788   6.2594929
  27.9838982  37.1996422   6.9798741  26.5570316  36.8185768   6.7686372
  43.4939308  27.9790382   1.8177764  44.2576561  27.5589294   1.3804864
  43.1525116  28.5012531   1.1304312  -6.9028702 -14.5659094  36.5337868
  -7.7491517 -14.3933687  36.0768547  -7.0788054 -15.2046814  37.2202454
  10.0998983 -24.8299484 -16.7520351   9.5548716 -25.6402130 -16.7466297
   9.6483688 -24.1938457 -17.2434101  14.2394266  40.2677612 -20.8873482
  13.4304829  39.7434502 -21.0502491  14.1727486  40.9147720 -21.6145782
  40.7813301  -0.7893997  25.3031445  41.2917290  -0.2493984  25.9686546
  39.8849373  -0.7152571  25.7838612 -43.3519287  17.7293491  24.4140072
 -44.3597031  17.8574219  24.5880680 -43.4591522  17.7403603  23.4396038
   7.0343719 -35.1823502  26.6394405   6.3254056 -35.8044243  26.5260544
   7.7045555 -35.5510406  25.9658489 -11.5778275  26.0183716   3.2188072
 -11.6988106  26.5542908   2.4359920 -12.5037107  25.8824272   3.4891472
  -4.8652930  -5.5057406 -29.6828251  -5.1701317  -5.0507460 -28.8153858
  -5.1118813  -4.7911606 -30.3050213  -0.0265483  38.9551315  12.2481098
  -0.6604569  38.2671890  11.8466434  -0.6610560  39.4285583  12.8221092
 -28.4762993  13.5038624  -2.0751855 -29.1166420  13.2829208  -1.3916885
 -28.5890503  12.7491608  -2.7100446  27.0582809 -24.0195045 -16.0496674
  26.1380806 -24.3037319 -15.8437386  27.4215488 -24.8999634 -16.3416252
  13.2215061 -14.1252871  -6.1325221  12.4205971 -13.9949303  -6.6341414
  13.3970385 -15.1056566  -6.2321649  38.4830513 -16.1362076  21.5413780
  39.2435493 -16.5303593  21.1186295  38.5612602 -15.1947126  21.2358284
  37.2672691   6.4614577  23.4877720  36.8087120   5.5618534  23.3525391
  38.1978378   6.1636672  23.3188381  13.1898146  34.8281136   8.4668770
  13.5169716  34.0671387   8.0001392  12.9261055  35.3614159   7.6565275
 -19.5981045   7.0931520  31.9665356 -19.8203449   6.5504203  32.7518883
 -19.3752251   7.9285560  32.3921432  -6.0878372 -12.4715204  -8.8485537
  -6.4580302 -12.1758404  -9.6994076  -5.1253381 -12.5159168  -9.1468306
  23.2177200  25.8370285  29.6078949  24.0023232  25.3317127  29.6026592
  23.4342499  26.6169491  30.1167450   2.8664823  -1.1090766  51.6839981
   2.3075325  -1.2264564  52.4750366   2.3119361  -1.6986368  51.0742722
 -17.9725399   9.7247677 -27.3728542 -17.2386055   9.0915518 -27.4975319
 -17.7509212  10.1088238 -26.5007286  29.2037945  -0.6300181  -9.2948284
  30.0531025  -0.1444209  -9.5632963  28.9491158  -0.8620441 -10.2651787
  32.6011200  -6.1219287 -13.3062220  31.8333321  -5.6109052 -12.9124832
  32.7849159  -5.3621411 -13.9967470  30.7994595 -28.9661770   2.5120809
  30.6106491 -29.8093224   2.1005182  30.0277176 -28.4425716   2.3022239
  11.5476141  36.3350334  24.1919727  11.0864162  35.8310623  24.9278679
  11.0539598  36.0523758  23.4050465 -10.3376408  -3.9729581  29.1925850
 -11.2722750  -3.8559244  29.5496731 -10.5690317  -4.7913642  28.6374474
 -14.5101624   7.0144043  46.0317345 -13.7010927   6.4476466  46.0772514
 -14.5376072   7.3544369  45.1442909 -21.4036198   5.6827059 -41.4261093
 -22.2909031   5.9573045 -41.8486061 -21.0916443   6.6089020 -41.2217941
 -19.9205742   1.4717032  47.3351822 -20.6315098   2.1509635  47.1833458
 -19.1537800   1.8777722  46.8550491 -26.5627327  10.5290833   3.1913502
 -25.9589405  10.8655033   2.4805305 -27.4447136  10.8213682   2.9582493
  17.1166611 -13.4092636   2.2547672  16.4383793 -12.9143476   2.7505150
  16.7801991 -14.3419514   2.3815002  16.1044903  51.2872200  17.4456367
  16.2799168  51.5014000  18.4070435  16.8794060  50.7877159  17.2173653
   2.8214636  30.0939960  31.7422180   3.0681839  29.6449585  30.8768082
   2.6342571  29.2814522  32.2351074  22.5601501   2.8365741  24.4751053
  23.2664204   2.8905361  23.8018703  21.8550625   3.3005164  24.0134373
 -20.3437176  22.9251709 -17.5036221 -20.6604595  23.7821941 -17.8888855
 -19.6639442  23.2760448 -16.8650799  23.6519413   0.8940436 -12.6462955
  24.3787708   0.5352206 -13.1849651  23.3626652   1.6443276 -13.2060795
  11.5460930   5.3131781 -22.5976963  11.6966772   6.0549669 -21.9694996
  10.5432043   5.4638743 -22.7202206 -15.4419355  36.9258347  20.3469658
 -14.7234669  37.3365479  19.7840157 -14.9845400  36.9559631  21.2294388
  19.0897217  18.4873219  17.0417709  18.9550133  17.5163498  17.1471195
  19.7386913  18.6807842  17.6991558  24.4276695  35.4073219  14.8934259
  24.9644680  34.6748085  15.2766361  23.5311298  35.1538315  15.0840054
 -14.7551622   6.1771460 -22.3302326 -15.3350735   6.5722485 -21.6841068
 -13.8610411   6.4305129 -22.0239010  31.7756901 -35.9891510 -25.3413162
  31.1444778 -35.6773148 -26.0271473  32.3852997 -35.1776276 -25.3208618
  -9.2085686  15.6976614 -22.4034634  -8.6979189  16.4977493 -22.6571007
  -8.9315758  15.0817032 -23.1237850  33.9275360  12.4715567 -26.3549080
  34.4080353  12.3822126 -27.2066765  34.3187943  11.6618357 -25.9331017
  22.2945271  -4.7399678 -31.9251709  22.3537369  -5.3355889 -31.1137867
  22.1435719  -5.3940506 -32.6365509 -13.1895313 -36.0857697   5.6697407
 -13.4577799 -35.6705513   4.8413634 -12.7822618 -35.3505707   6.1715345
  20.1875477 -36.8164482 -18.8226109  20.2820244 -36.6203117 -19.7677994
  20.3839912 -37.7724648 -18.7883930   1.7588894  42.9674911  -8.3289719
   2.5491629  43.4324532  -8.5366325   1.7626803  42.8189049  -7.3937931
  25.7097054  35.8664551 -18.5006561  25.0520134  35.1865463 -18.8212433
  26.5233974  35.7104836 -18.9374905  -2.6361308  14.3878546 -24.7152500
  -2.2513340  14.3675823 -23.8380928  -2.5906079  13.4106588 -24.9006481
 -40.5205002 -19.6012096   3.5445049 -39.8520966 -19.6396313   2.8554330
 -40.7241783 -20.5676060   3.7788665  33.7612801  12.9507980  -7.3888373
  34.2870331  12.2303724  -6.9964375  33.0560112  12.9949751  -6.6847997
  18.6177979  36.7298775   6.1959724  18.6194973  36.3283386   5.3170896
  18.2268486  36.0379028   6.7157001  -3.6397216  -1.9699782   5.5193853
  -3.4286494  -1.9601642   6.4622664  -4.2696648  -2.8023603   5.5044909
   0.4547316  34.1288223 -30.4389725   0.4793132  33.3703117 -29.8497257
   0.2844429  34.8245735 -29.7428093 -40.7191734   1.7111466  -7.2562561
 -41.0144615   2.6615376  -7.0994020 -41.6068382   1.3278930  -7.0612798
  -4.5128398   2.7023687  41.2799263  -3.8791983   2.5805347  42.0838547
  -3.8477907   3.1614716  40.6890450  -3.8534982  24.0414104  19.3108635
  -4.7112031  23.5684834  19.1849651  -4.1513839  24.8053474  19.8520355
  -0.5692655  21.3747158  36.1858368  -0.1020287  22.2384624  36.4153366
  -0.0937925  20.7288990  36.7567749 -17.0755482   7.6408439  38.9756584
 -17.1060085   6.9204717  38.2924156 -16.7891674   8.3675470  38.3337631
 -34.8019905 -31.7429714  -0.0624189 -35.4903603 -32.3071594   0.3200210
 -34.1984558 -32.4148521  -0.4695172  10.8649483 -17.3011990  13.3807755
  10.1737623 -16.6504574  12.9740448  11.0158043 -16.8537579  14.2167625
 -35.5328445   0.1149104 -39.8039551 -34.6718407   0.2800761 -40.1994743
 -35.3551941   0.0072601 -38.8296051  -0.6014474 -20.9428596  26.1672993
  -0.4381391 -21.8828220  26.4575176  -0.8907055 -21.1149235  25.2511272
 -25.3009644   3.8209844  25.4581184 -25.0420704   2.8925109  25.1932850
 -25.4947472   3.7384198  26.3815536   9.5080013  15.9130402  20.3539047
   8.8150578  15.4675198  20.7851582   9.8555326  16.5514851  20.9951630
  18.9102478 -35.1191635 -31.5272083  19.6890583 -34.9719772 -30.9536743
  18.8180428 -34.2735634 -31.9746113 -12.7206659 -13.1166725  17.5760307
 -12.2539139 -12.6291351  18.2864189 -12.3979177 -14.0141764  17.7057762
  15.7594728  -1.3325078   3.8617764  15.8109980  -1.8962512   3.0592546
  16.6924839  -0.9371819   3.7849698  -9.1301289  12.6673164  47.3534241
  -9.6898508  12.0254450  46.8320122  -8.2641687  12.1528063  47.3618431
 -11.3797503   7.9917040   6.1763010 -11.2026739   8.9711437   6.2733884
 -12.1870613   8.0220137   5.6255612 -27.6191521 -40.4314156   7.5040884
 -28.3489037 -39.8083191   7.5929193 -27.0341244 -40.1548271   8.2076797
  -3.7099552   8.7684946  43.1052818  -3.0816340   9.3094301  42.5309372
  -3.3708405   9.1768456  43.9648438 -28.1246529 -33.5608864  16.0202942
 -28.6841049 -32.7911301  15.7479544 -28.5265617 -33.8879585  16.7837563
 -15.5867844  29.6111298  -8.2148342 -15.4840584  28.8188057  -8.8012552
 -15.0354729  29.3583164  -7.4672318  32.7492599  26.4709167 -25.1663055
  32.1220932  26.7731075 -25.8000889  32.2521744  25.9397926 -24.5304394
  -9.4835978  -4.4054461  40.1188583 -10.2767267  -3.9432082  40.4145622
  -9.7791653  -5.3484521  40.3065987  29.0603504 -36.2379494  13.3581648
  29.2759399 -36.5257683  14.3269072  29.4569817 -35.3143425  13.3868132
 -11.9060373  15.6735039 -34.5257225 -11.5092688  15.5628939 -35.3667946
 -12.8031530  15.3984365 -34.6576729 -12.6275024  27.8294373  14.6578503
 -11.7602186  28.0327549  14.2641821 -12.4393740  28.2757893  15.5700026
   8.5246754  31.5433350 -24.0200653   9.0057211  30.6952400 -24.2324829
   7.5644679  31.2882957 -24.2526741   0.6678248  40.9670830  24.0344658
   0.3420467  40.2715034  23.4649734   0.2788816  40.6470642  24.8742523
  27.1230431 -20.1445370  27.5849400  26.3452778 -20.7077885  27.5010624
  27.1504326 -19.9469337  28.5424404  31.7750835 -19.7803497 -14.4194012
  31.6138248 -19.3854294 -13.5645685  31.0882683 -19.3838749 -14.9349165
  17.8304653 -39.3537102  19.2891464  18.3067799 -38.5580444  19.2221832
  16.9211807 -39.0309868  19.1732330 -11.8808041  38.4599342 -34.5580406
 -11.4988461  39.0120277 -35.3186378 -11.1374540  38.5745583 -33.9308586
 -25.7448368  18.9798622  -1.6756723 -24.9009342  19.3655319  -2.0586116
 -25.8841076  19.7262554  -0.9780880  14.0391788 -30.7115479  17.0344601
  14.6505461 -30.4461155  17.8395691  14.0165739 -29.8652592  16.6020641
 -19.1435051  20.9917889  32.6266479 -18.5954361  21.1956921  31.8159237
 -19.0370426  21.8780270  33.0812569  42.5396423  15.7645369   1.7150059
  42.9747849  14.9249411   1.7831541  43.1145058  16.1562767   0.9557962
 -15.2976036   7.9227471  51.0227852 -15.9307470   7.6422892  50.3868446
 -15.3927917   8.9174671  50.9932861  28.6095791  -4.8151641  11.8736515
  29.5478325  -4.6139555  11.7423296  28.6972771  -5.3586268  12.6886091
 -41.4527321   5.7701612 -15.7611961 -42.0521355   5.4101710 -15.0826569
 -42.0229378   6.1400194 -16.4661064 -16.5361576 -44.5470848  -2.8378868
 -16.0178375 -43.9140320  -2.3167222 -17.1652699 -43.9188728  -3.2700152
  14.6768608 -20.8862801 -28.3068790  14.4639502 -19.9897614 -28.6626034
  15.6519575 -20.7791157 -28.3554363 -13.0339174 -20.3425751  16.2646370
 -13.4621153 -19.5331631  16.6000538 -12.8671942 -20.1113625  15.3144283
   7.3484840  33.9550552  -6.9353614   7.5868468  33.2650604  -6.3060560
   7.1950436  34.7117386  -6.3267183   6.4550152  -2.7602296  36.0308380
   7.0158825  -2.1936526  35.4801674   6.0665832  -3.3470478  35.3740692
  35.4423409  28.6807213  18.9059238  34.5616989  28.3592358  19.1082630
  35.4118729  28.9195709  17.9725170 -14.2741032 -21.4227314 -13.1119938
 -13.3810081 -21.1422176 -13.4412079 -14.0229445 -21.8483124 -12.2885475
  -3.4196877 -23.8653603  -4.4821601  -2.6858153 -23.7006378  -3.9985101
  -4.1045108 -24.2651081  -3.9504642  -6.9572020 -25.0382347 -34.0124969
  -7.7055411 -25.1762581 -34.5358810  -6.2546902 -25.5755024 -34.4164467
  19.6805439  -3.0247755 -34.3926582  18.9144669  -3.3445721 -34.9556923
  20.1048870  -2.3388608 -34.9055557  29.2263527  38.4753418   2.0897253
  29.1625175  38.8052826   2.9631877  29.2071209  37.5018921   2.2051151
 -23.6096115  -2.9612317  21.8812923 -22.6178570  -2.9578221  21.8561020
 -23.8068180  -2.0523036  22.0079460  -7.7446361  -8.9344168  15.5191202
  -8.3999643  -8.8395653  16.3046837  -7.7954202  -9.9135790  15.4643373
  -1.5117074 -11.0096693 -45.6036110  -1.6133546 -10.2579489 -46.2704391
  -1.0903590 -11.6492710 -46.2161903  30.4108562  40.5137329  13.6773405
  29.8520737  40.4382172  14.4677172  30.3895512  41.4964676  13.5407696
 -17.2259521 -10.5970964   6.8712282 -16.2432213 -10.5456963   6.7543774
 -17.2122288 -11.3883104   7.4426146   1.3926848 -10.2037411 -21.6844006
   2.0229981 -10.5215349 -22.3502789   1.1796011 -11.0071602 -21.1229229
 -20.7941837  28.2677765   1.7028307 -21.7490425  28.4547806   1.9085439
 -20.4105759  28.7214432   2.5397260 -30.9399014  15.9927940 -37.2453346
 -30.1163216  15.8378563 -37.7605324 -30.5788193  16.5268192 -36.4821053
 -32.8959846  -4.1748080 -14.7406578 -33.5550957  -4.7954226 -14.3566561
 -32.9029694  -4.4592705 -15.7159939  11.1728163  28.0107746   6.6146884
  11.9070864  27.7065830   6.0403709  11.5476866  27.8067608   7.5002522
  23.3462296 -29.9205627  -0.3630148  23.8550777 -29.5057716   0.4054392
  22.9337006 -29.0599957  -0.6687279   3.3448894  12.5002728  22.1348019
   3.4174242  12.9395370  21.2563572   3.7615414  11.6061535  21.8841801
 -32.3999710 -17.2879105 -11.1151304 -33.2977753 -16.9248505 -11.2686338
 -32.6574593 -18.0853443 -10.5941458 -15.1749191  30.9103622  -2.2395248
 -14.2731066  30.8069115  -2.6528323 -15.6240711  30.9607792  -3.1241407
   0.7528546  15.3484211 -28.5337944   1.3474940  14.5681553 -28.6985531
   0.4942268  15.1567183 -27.5936565  10.7707825 -42.2762947  22.5581627
  10.6457272 -42.7986069  23.3452969  11.5404444 -42.7232742  22.1436024
  44.1980820   0.9083621  12.4540253  43.3861961   0.9171808  13.0046949
  44.0356369   0.1981207  11.8308334  -8.0106974  -7.2386303 -21.2819595
  -8.5270243  -7.1244473 -22.1129322  -8.6956053  -6.7821455 -20.6849098
  26.8119297   8.7651997  10.7760162  27.4595757   9.5125093  10.7811975
  26.5572491   8.8332462   9.8571377  10.8163977  26.7054749 -16.9217968
  10.3046007  26.2440586 -17.5975571  10.6129532  26.2128925 -16.0854073
  25.4973545   7.0398550 -37.4091873  24.9686718   6.7120647 -36.6787071
  25.8179417   7.9250059 -37.0281067  13.5294838  -0.4525762  46.5420914
  12.7090883  -0.9329634  46.2234497  13.3265676   0.4564052  46.3403511
 -10.2262344  37.1336403  -9.6552124 -10.3038063  37.8189888  -8.9538403
  -9.4053345  36.6973495  -9.3449926  -0.6842637  -6.6119046  11.1287498
  -0.4144558  -7.0992584  10.3451052  -0.6975836  -7.3315339  11.8084497
 -14.7730875 -12.1837006 -29.3907585 -15.6569910 -12.5582314 -29.5821857
 -14.6119566 -11.7049780 -30.2601681 -31.0402279 -20.3619728  -2.1007893
 -30.0689449 -20.4487915  -2.0393982 -31.2408447 -20.8517132  -2.9473643
  24.8365917  13.2155237  -4.0446925  24.7026310  12.7754660  -3.1795352
  24.0833912  12.8654881  -4.5465307   4.3835392  33.9380188  17.4954567
   4.7709274  33.0816154  17.1425018   4.5226412  34.5118866  16.7385998
  -3.5234535  15.0952196   4.1086469  -2.6138065  14.9836626   4.4473739
  -3.9797552  14.3122082   4.5161591 -34.2620850  11.9369078  -7.3702211
 -33.7588310  11.2256374  -6.9296465 -35.0910072  11.4625797  -7.5414352
 -31.6429405  30.3165302  -8.1763744 -32.2003403  31.0554733  -7.9360042
 -31.5836697  29.8949814  -7.2849741  22.1311111 -36.2447319  15.6512766
  21.8231182 -36.1046982  16.5553131  23.0362206 -36.5186424  15.7686300
  28.0848961 -10.7650928  -8.2966080  27.5090122 -11.5792265  -8.4428596
  27.7322502 -10.2595682  -9.1176596  23.0323029  11.7397594 -29.0240707
  22.9192619  10.8325090 -28.7826405  22.0793209  11.9602995 -28.7655354
 -16.8193684   0.2915315 -38.3509293 -16.3785133   0.7664313 -37.6572685
 -17.7422905   0.3557472 -38.0599251  -7.8123703  18.7088871  -8.1067610
  -8.2163982  18.8586731  -7.2628188  -7.1862359  19.4216881  -8.1709404
   0.2592831 -11.6742668 -47.7591133   0.2935452 -11.5691690 -48.6812134
   0.9933456 -11.0516405 -47.4685059   9.7969027  28.7699432  13.3761749
   9.1978226  28.4444008  14.0920658  10.5960512  28.9104099  13.9039402
 -38.0091324 -33.1960640 -12.1628475 -37.2583809 -32.6375046 -12.5170212
 -37.9046936 -33.9676895 -12.7748117 -26.1867352  24.1942406 -17.2587376
 -26.3800640  24.9740944 -17.7964611 -25.9053345  23.5575008 -17.9438934
  -4.1716118 -24.6790142   8.0876598  -4.0814328 -23.6741676   8.2968330
  -5.0458636 -24.6030483   7.6529059  -9.8401794  16.0121536  34.6281815
 -10.0936890  15.1696625  34.9524956  -8.9303923  15.8452559  34.3164597
  30.9460735  37.1745377 -10.7731066  30.0522480  37.3839836 -11.0724163
  31.1478558  36.4815941 -11.4011002 -13.1980047  19.3967800  47.3673477
 -13.8464060  18.7068176  47.2810898 -12.8762159  19.3338490  48.2980537
 -22.8300552 -40.3845520  -2.3123860 -23.4849014 -40.7873573  -2.8951209
 -22.6565838 -41.2158089  -1.8115294 -37.9710121   9.8008862   2.8059430
 -38.1141930  10.3184347   1.9952512 -38.7958832   9.2737169   2.8078787
  41.2091255  -6.5227938  -8.0202961  41.8225784  -6.8741822  -7.4057002
  41.4866867  -6.9147544  -8.8842478  -7.9534903 -26.1015263  -7.6749315
  -7.8901043 -25.1621571  -7.7958975  -8.9143229 -26.1936531  -7.5602508
  16.7289810 -32.8358192  -1.8124946  17.4890442 -32.6861000  -1.2407557
  17.1798954 -33.3412437  -2.5288632  33.2612686  10.8180609   8.0418720
  33.2861137  11.0037556   8.9976263  34.0804825  10.3917160   7.8261533
 -23.4686527 -28.0108910  17.3678551 -23.4554367 -27.7603703  18.3223114
 -23.4649906 -29.0050182  17.4311905  23.2020645  22.9233875  31.3191986
  23.9095459  23.6655827  31.2847748  23.8060226  22.2340755  31.6232681
   2.2894440  -7.6184978 -19.2866917   1.7274172  -8.3856106 -18.9773521
   2.4819407  -7.9075036 -20.2001572 -33.4879227  18.4135342  13.6708927
 -33.2258682  18.9190865  14.4595919 -34.2686424  18.8715687  13.3825340
  13.9242792  10.7875776  10.3325377  14.7330532  10.4414606  10.7151222
  13.9546652  11.7255602  10.5288200   0.1162659 -25.4810524 -33.4162025
  -0.7969456 -25.6430588 -33.0225029   0.7121553 -25.7654419 -32.7053719
  36.9541702 -20.4493027   7.1169896  37.2983627 -19.9272938   6.3943729
  37.8258362 -20.5722256   7.6309633 -16.4927101  12.2629652  45.7200775
 -16.5446625  12.5443678  44.7688065 -16.4993687  11.2964497  45.5898781
  -6.0444083  -8.5511131  -9.3547783  -5.9744043  -7.6407480  -9.7492208
  -6.8632131  -8.4172983  -8.8544893  43.8946266   7.1274595 -27.7212791
  44.3138962   6.4853840 -28.4168262  42.9825592   6.8413892 -27.8041592
 -41.1736183  25.1822147   9.2098646 -41.0147896  24.4780865   9.8822165
 -40.5712357  25.8697681   9.5374527   9.0478477  41.7540474  -6.6840801
   8.3340273  41.2977333  -6.2637076   8.6194668  42.6104736  -6.8505068
  -2.2776303   6.6929889 -16.6456203  -3.2297482   6.3140192 -16.8515415
  -2.0964408   6.0432177 -15.9447317  19.9673042 -11.0456734  22.3770638
  20.9194927 -11.1417398  22.5924129  19.7117615 -10.1835823  22.8215351
 -10.3880453  13.0262575 -28.8203163  -9.4204273  13.2597723 -28.9592667
 -10.3259220  12.4814920 -27.9989338  24.4509964 -22.4740429 -37.3648148
  23.8784046 -23.2876568 -37.2630386  23.8251553 -21.7895660 -37.1267891
  10.6712713  15.9488678  12.7506571  10.7231979  16.5655518  13.5324030
  11.5848265  16.0080261  12.4720583  10.1913176 -16.7394600  45.7829247
   9.3596973 -16.3598804  45.3737869  10.7752781 -16.0439510  45.5440102
  22.0871391  25.5933056  19.6084461  22.8493328  25.9856758  20.1024971
  21.6786499  25.2292652  20.4504948   9.1152973 -22.9570465 -10.3558693
   8.2218828 -23.0117130 -10.7775173   9.3390579 -23.8406506 -10.1777372
 -24.4690228  35.6965752 -22.1515865 -24.6847668  35.0056267 -21.4704514
 -25.3834095  35.7116241 -22.6231117  15.4175615   6.4800005  -7.3640060
  14.6879559   5.9597754  -6.9904890  15.4101562   7.1529422  -6.6093769
  24.1753559  -6.8455005   2.4541104  24.5510712  -6.0175724   2.7092016
  23.5240955  -7.0598493   3.1015851   9.8000889 -22.1255264 -40.1781769
  10.2202864 -21.9415569 -39.3965302  10.0503263 -21.4043484 -40.7724190
  -7.0374975 -16.6968193  22.0114117  -6.2351041 -16.9249649  21.4279575
  -6.5563550 -16.4612522  22.8710480  10.5224638  26.4506607 -23.0654755
   9.9343662  26.8512306 -22.3814144  10.0817356  25.6168633 -23.1818123
  11.9033480  33.8731194  27.9429359  11.5310946  34.3856697  27.2343845
  11.0700493  33.3902092  28.2851772   4.5675583 -28.7047138  30.4199772
   3.7698071 -28.7784958  29.8098564   5.2018533 -29.1362305  29.8340969
  -6.1065412  37.7929077 -13.8437309  -5.2775135  38.2380753 -13.7324553
  -6.4670110  38.3423195 -14.6380796 -40.9766426 -22.7483578  13.0465536
 -40.1546555 -23.0488014  13.5257578 -40.5972862 -21.9881516  12.5963774
 -29.7395573   5.0587959 -18.9377460 -29.0574608   4.7217007 -19.6207886
 -30.2050476   4.2397790 -18.7427502 -24.0420494  31.6109142 -33.6828041
 -24.1593590  32.1248894 -34.5370216 -23.0528030  31.6990452 -33.7171097
  -1.7969450 -17.6783676 -14.3705130  -0.9854355 -18.2568398 -14.2791538
  -2.0312507 -17.8798141 -15.2525396  39.3917618  32.1632729   7.5308805
  38.9464111  31.2901878   7.6812830  39.4728088  32.3983727   8.4693518
  18.4940071  35.4400330  -2.0795739  18.8810997  35.7368393  -2.9044838
  19.2083473  35.3989983  -1.4686111  -1.8682073 -15.7433109  11.4363699
  -2.0810750 -16.1301060  10.5004673  -1.5776446 -14.8763075  11.0686188
 -28.7868099  15.3600092  15.4377289 -29.4323425  16.0062656  15.4714069
 -27.9834690  15.8686066  15.1212797  32.6121407  22.0527973  18.9915485
  32.1479149  22.5644703  18.2612686  31.8540154  21.7664967  19.5258312
 -30.9026089  -1.6738538 -20.6839123 -30.3754711  -0.8952177 -20.9602928
 -30.3208733  -2.4328370 -20.8735123  34.6378746 -10.3380318 -15.7902279
  34.3144646  -9.4885826 -15.4092426  34.2881012 -10.2133350 -16.7217484
 -16.6110878 -40.4426270  15.3751707 -17.1317425 -40.5480537  16.2165909
 -15.8719578 -41.0725403  15.5395298   8.3529158  36.2551422  -3.0318596
   8.0265760  35.3003998  -2.8653336   7.9909935  36.7462273  -2.3200781
  -1.5091621 -18.9194145 -18.3335972  -1.2913660 -18.8120136 -17.4106236
  -0.7011107 -19.2901688 -18.7234135 -20.9070587  14.4711370  33.1107635
 -21.6009617  13.8603096  32.7054520 -21.1902599  14.4038620  34.0676270
   8.0684996   4.3291268  21.0339508   8.2577562   4.6655626  21.9326496
   7.1476951   4.5804214  20.8654213  -5.0247722  -4.0852375   5.3279114
  -5.9278574  -4.4009280   5.0654364  -4.6757889  -4.8434625   5.8034940
 -13.3858271   7.6020484  -0.3117652 -13.8486099   8.3330994   0.2134218
 -14.1884813   7.2970214  -0.8175684  23.1175537  13.7115984  23.4959602
  23.5950298  13.4735336  24.2956982  22.8416100  14.6432829  23.7377777
 -33.5103455 -11.5413370 -25.9692650 -32.8997955 -12.2620258 -26.2429657
 -34.3480568 -12.0169182 -26.3324966 -17.6870766 -26.4267616 -22.3909779
 -16.9851894 -25.7770443 -22.0878010 -18.0342865 -25.8624363 -23.1452026
  -3.9042332 -13.6718121   4.4748697  -3.7022936 -12.7815037   4.3219819
  -3.2216482 -14.1629457   3.9579926  33.5390015   3.5325551  36.9019356
  32.7966156   3.6980646  37.4856262  34.0698051   4.2786756  36.9885750
 -14.6263304 -42.4941635 -10.0628719 -15.5184813 -42.8798332  -9.7415962
 -14.5965614 -42.8964806 -10.9345274 -17.1930256 -27.2387714  11.5687237
 -17.3853512 -28.1976452  11.3824091 -16.1979733 -27.2996540  11.3948812
   3.1352212  34.3033447  13.3631287   3.8281541  33.6715469  13.0554304
   3.4086740  35.1287994  13.0744629 -22.7379055  25.4297581  29.2294712
 -22.0417862  25.5601845  28.4877701 -22.3882904  26.0245380  29.8622513
 -26.7446938 -17.2948456 -33.6147003 -25.8333073 -17.0089283 -33.7091560
 -27.2101860 -16.4235306 -33.4578857 -32.2827950 -21.5628357  16.5362625
 -31.7824841 -21.3258171  17.3703480 -31.5533199 -22.0965176  16.1284771
 -18.8057213  -0.7838708  -1.5540112 -19.7230835  -0.9070988  -1.8946801
 -18.4331303  -0.1140150  -2.1092913 -21.4022560  -5.9957194   6.2493739
 -21.7873669  -5.3662496   5.5883331 -21.4221458  -5.4045267   7.0264001
  -1.7717627  18.3464146  20.2908382  -0.8896491  18.4933071  20.5867214
  -2.0709212  19.2403183  20.0135136  40.2457199  -9.8713522  -7.4041309
  39.8275146  -9.3483105  -8.1007433  39.9196281 -10.7665863  -7.5694127
  12.4534864  46.8627815 -11.0158348  12.1992817  47.5735016 -10.4606514
  12.6802731  46.1915970 -10.3541069 -42.1092491 -24.9579506  -2.3370771
 -41.2965317 -25.3741302  -2.1008761 -41.7967758 -24.0977669  -2.7554424
  -0.8424247 -13.2905407  -8.0739317  -1.1440947 -13.6412754  -7.2456412
  -1.1175148 -14.0037451  -8.6876125 -35.5043373  18.8270035 -22.7338829
 -35.3146858  19.7780209 -22.6580048 -36.0349846  18.7201214 -23.5101662
 -22.4659939   9.4191647 -18.1529045 -22.0420837   9.4447136 -17.2792854
 -22.2223816   8.4770451 -18.4204006  10.3890285  40.5778046   7.1799326
  11.2089825  40.8894539   6.7366819  10.2550611  41.2645569   7.8613100
 -13.2800188  33.5340385  -0.6084655 -14.2315874  33.3873749  -0.3971883
 -13.0295649  32.5853500  -0.7481946  -7.4867296 -49.2018280   3.7704973
  -7.0431681 -50.0027962   3.4678965  -7.8255310 -48.8471870   2.9349551
 -11.3440905  38.0572701  22.2234726 -11.2489405  38.3092804  23.1738644
 -10.6280584  38.5599174  21.8038673 -30.2137260   8.0804949  40.0123749
 -30.2824154   7.9012299  41.0282745 -29.2443123   7.9015203  39.9294205
 -14.8370667 -35.3361664  -0.7117200 -14.0619078 -34.7436562  -0.8201333
 -14.5272999 -35.7821960   0.1157641  18.9544716  -1.4561037 -20.0981350
  19.8823624  -1.5006679 -19.7050591  19.0991173  -0.6243777 -20.6141052
 -12.6800375 -33.9116669  -1.3882339 -12.5880165 -33.6833725  -2.3029418
 -12.4953098 -33.0211983  -0.9699936  43.5432892  -4.6591678  -3.3330195
  44.1798897  -5.0359979  -2.7526493  44.0783157  -4.2163868  -3.9655135
  29.5181332  -1.0594141  16.6774235  28.6524811  -1.4821796  16.8018208
  30.1092529  -1.8124940  16.7352848   3.0093226 -33.9080849  -2.8185022
   3.8465605 -33.5321083  -3.1958699   3.1149480 -34.7884941  -3.2277439
  29.8653831  -7.0005040 -21.6285992  30.7269535  -7.3962183 -21.8515701
  29.2779427  -7.7897635 -21.9110317  12.4574404  29.6790009 -14.4997501
  11.8692398  29.1185646 -13.8682356  12.7487383  28.9622498 -15.1192169
 -12.9014816 -10.8960361  37.0816345 -13.1758709 -10.2442064  37.7784882
 -12.9802618 -11.7317724  37.6061592  -8.9818707   3.4459295  28.8813896
  -8.3738565   3.3641400  28.1051655  -8.3590927   3.4343560  29.6264153
  31.3979378 -29.8474903 -26.3217010  30.4502640 -29.9368706 -26.4902649
  31.5909233 -28.9557629 -26.6923904  38.5786247  10.0909176   9.0238523
  37.6818733  10.4670897   8.7757044  38.4302025   9.2835884   9.4247046
   9.5789948 -40.0937424 -14.1048431   8.6851006 -40.3697205 -14.4688368
   9.9704227 -41.0292397 -14.0968094  11.6661215  24.0099525  31.0238552
  12.2353277  24.4528275  31.6733780  10.9477901  23.6693687  31.6435223
  11.3455744 -35.5814400 -12.7233582  10.7548285 -34.9354401 -13.1680365
  12.2262173 -35.2765045 -13.0761509 -21.4224052  27.1425819  17.9424973
 -22.2005157  26.5368156  17.8672104 -21.0353241  26.9370403  17.0646267
  37.4827538  20.0925503  21.8230858  37.7592430  19.3084755  21.3962288
  38.0803146  20.0983181  22.6084442  -0.8208062 -11.5537243  13.5290136
  -1.7966368 -11.4045258  13.5717344  -0.7336795 -12.2048378  14.3178988
  34.7041664  -0.7283159 -19.4612923  34.9390259   0.2017537 -19.3371067
  35.5987587  -1.0365447 -19.0925694  -5.1937628  -8.4097824  12.8949366
  -4.6840858  -7.7153392  13.3379154  -5.7752147  -8.6764174  13.6156082
 -12.3885622 -24.3076229  14.9550581 -11.9436359 -25.1496258  15.1141396
 -13.3203945 -24.5466728  15.0666819 -14.6968307  33.1103287  -7.7793517
 -15.5341358  32.5931702  -7.5885143 -14.1039915  32.5792236  -7.2158389
  -9.9667501 -18.0910912 -18.0537949  -9.8627148 -17.4061260 -17.4227333
  -9.5341330 -18.8705540 -17.5715237  32.5760384  22.2232895  -7.3144250
  32.6637306  22.8316879  -6.6203642  31.7784176  21.6689930  -7.0358143
  17.4334373   5.1251135 -17.7583275  16.9217911   5.9225712 -18.0717201
  16.8901558   4.7092729 -17.0978413  -4.2183309 -12.7908382  -0.6293257
  -5.0700078 -13.3501692  -0.7916480  -4.4777279 -12.2375937   0.0903771
  -7.3701773 -49.5998230 -19.3015957  -7.4300690 -48.6451035 -19.1527805
  -8.2743063 -49.7563553 -18.8886452  -7.2078862 -29.8128872 -24.3434143
  -7.0394869 -30.2363262 -25.2513714  -8.1002140 -29.4488869 -24.5386009
  -7.4006867   2.0889301 -36.9050026  -6.8635845   2.6217463 -37.5318108
  -8.3147888   2.4101279 -37.1016273 -29.5084419 -15.8445768 -26.9413700
 -29.8867779 -15.5223732 -26.1111870 -30.3355846 -16.2537460 -27.3379669
 -21.7333832  22.6212368  -9.5909357 -21.7167931  22.6254807 -10.5621967
 -22.3167686  23.4411182  -9.4467182  -7.5056782  25.8244591 -20.9650326
  -8.0468292  25.0655537 -21.2540970  -7.8698325  26.4915371 -21.5449810
  -7.8849621   5.2529502  48.2486496  -7.3604612   5.3277874  47.4570618
  -7.7755532   6.1180205  48.7031403  -4.0238080  -1.0392122 -11.6434097
  -3.6065104  -0.3596693 -12.2239618  -3.2179627  -1.6137229 -11.4382944
 -19.5597363  -0.8253638  34.2247696 -19.7065773   0.1393260  34.1995239
 -19.6813107  -1.0861566  33.2821083  21.4116783 -37.6029320  -7.1185679
  20.6328812 -38.0861855  -7.4794717  22.1564407 -38.0660362  -7.4737458
  16.5724678   7.5893354 -15.4237490  16.1427155   7.7565455 -14.5761862
  16.0212345   8.0875874 -16.0271187  -7.9866915 -47.2700577  21.7200432
  -7.0264363 -47.3222656  21.4999409  -8.1025219 -48.2231903  21.9984474
 -23.6736622 -41.9943428   6.0559516 -23.5246735 -42.2249298   6.9696107
 -22.8599529 -41.4258156   5.8482814  26.8416042  16.2757607   4.9080558
  26.9225426  15.3584175   4.6308937  27.7234249  16.5482349   5.1463442
  -7.8893309 -16.0223007  32.0262756  -7.1677332 -15.4280739  32.1562958
  -7.4255800 -16.8193512  31.6517239  23.9628563   8.7612028 -12.9565306
  23.7525177   7.7794185 -12.7484913  23.0385742   9.0369577 -13.0188770
   1.0858365 -33.0249672  14.5818272   1.0070473 -32.7711868  15.5106211
   2.0919783 -32.7412872  14.4646292 -42.6467514  -0.6945140 -24.1145096
 -43.5582657  -0.7703936 -24.4504795 -42.7999191  -0.6504001 -23.1715641
 -43.2397499  25.2634697   7.7293973 -42.4182243  25.2711678   8.2401028
 -43.8306274  24.8684540   8.3836489 -28.0003757  14.9584475 -30.2100925
 -28.5601654  15.5286417 -30.7053299 -28.4861088  14.6896324 -29.4412689
  -6.9601297 -38.8649025  14.4610481  -6.2553544 -38.1211128  14.3766537
  -6.4589729 -39.4995499  14.9878464  -5.7082191 -25.7321396 -12.7865191
  -6.6180215 -25.3962574 -13.0352135  -5.4150982 -26.0687733 -13.6325197
  -7.8242006  26.4343452  19.1604919  -8.3973064  25.8206615  19.6552143
  -7.9829369  26.0401249  18.2451038 -38.0408630  -7.0848460  25.7360668
 -37.3652382  -7.4929709  25.1855392 -38.2981453  -6.2895784  25.2571945
  -7.5817556 -38.7177010  11.8522110  -8.3969622 -38.2441368  12.0762777
  -7.3733377 -39.0252304  12.8063107   5.9593010  43.7734261  25.9355183
   5.0026250  43.9932404  25.7259541   6.1282229  43.1078110  25.2038174
  25.5247593 -23.4772472 -29.8767166  25.0357933 -23.9346409 -29.1451817
  26.0254669 -24.2183170 -30.1682701 -27.9036121  23.9144077 -15.2479916
 -27.3014889  24.0152702 -16.0207176 -28.6630020  23.4866619 -15.6983557
   2.7317736  11.0242548  36.8255005   2.8025968  10.6270838  35.9178505
   2.9605427  10.1698408  37.3360367  31.2506695 -10.0470772  22.0024281
  31.0783558  -9.1321297  22.2571583  30.6687279 -10.5149851  22.6655197
  39.2144394   4.6363640 -12.0243530  39.2539940   4.9350543 -12.9248447
  39.0995255   3.6656840 -12.1034069  41.6733513  31.1826782 -12.0585022
  40.9528961  31.0976372 -12.7413502  41.8149071  30.2332935 -11.8718739
  23.9642372 -11.2812786  16.5738239  24.7951355 -11.4440880  17.0683537
  23.4305897 -11.9907494  16.7811298 -32.8540268  -4.2452488   5.2952576
 -33.1821594  -5.1234875   5.0845690 -32.8665352  -3.8157320   4.3860869
  14.6017609 -39.7790451  -4.7957892  13.7935019 -40.2611427  -4.9991112
  14.3705177 -39.7023048  -3.7446308  28.0023937 -12.3580542 -24.6326351
  27.7459183 -11.6471415 -25.2551956  28.5543480 -11.8889036 -24.0208397
  -6.1886520 -14.0287361   5.8906698  -5.4459400 -13.8930101   5.2012835
  -6.0497475 -15.0011158   6.0536594 -20.6419239   4.0052404  46.3948326
 -20.2246361   4.1536779  45.5221519 -21.4884300   4.4178753  46.2646561
   1.4410534 -26.6821308 -31.5506458   2.0213742 -26.9786777 -30.8070164
   1.4502695 -27.5493202 -32.0679016 -29.7087612  -0.8132520   6.6540637
 -30.1450043  -0.0891100   6.2055840 -29.0499916  -0.3486100   7.1483064
   5.0423145  30.4232025 -22.6071720   5.4074159  30.5641422 -23.4984283
   5.8495846  30.1850548 -22.0417328  -1.1301346 -21.9793987 -15.7784147
  -1.2785444 -22.6742764 -15.0583878  -1.2748207 -22.4722900 -16.5690498
  18.3877773 -32.6715126 -33.2530022  18.9111748 -32.8698997 -34.0813103
  17.7356434 -32.0737152 -33.6638756 -31.3882465 -33.6434059  -4.0396318
 -31.2681980 -34.3910675  -3.4289649 -30.8693180 -32.9445457  -3.6282425
  33.5843697 -21.0265179   5.9457250  34.4371033 -21.4191113   5.7597933
  33.0489769 -21.1841774   5.1182008   8.9849176   8.1225405 -21.8205299
   9.0519114   7.9074407 -20.8220310   8.3385344   8.7653189 -21.7627125
  25.6841431  12.4398222  32.8109055  25.7333736  13.4275503  32.5966225
  25.1810360  12.1115685  32.0792503 -27.1906910   8.9373894  24.4066048
 -26.9349613   9.9504242  24.3291054 -26.7312889   8.7416182  25.2458839
  23.9810085  44.6005592   6.4116478  23.2784386  44.1662102   6.9657655
  23.6337681  45.5094872   6.3998103  -5.0539694 -38.6481972  -4.3568130
  -5.4560828 -38.7298355  -3.4443581  -5.5766311 -37.9387703  -4.6845999
  -4.8338785  21.1369362 -40.9180565  -5.7365732  21.4801388 -40.9466934
  -4.6009498  21.1419277 -41.8548813 -35.8771286 -25.6828594  18.7115116
 -34.9724236 -25.7527390  19.1441383 -35.8458061 -24.7055283  18.5315666
  10.8883018  24.7861557   3.7293682  11.8224602  24.5048447   3.5814404
  10.6104279  24.1607990   4.4487967   7.6279736   0.3556785 -27.7629738
   8.1556787   0.9360118 -27.2352715   6.8525519   0.8755938 -27.9562244
  39.7242203  21.0857887 -11.9535122  39.0238342  21.6986408 -11.6523676
  39.2311783  20.2604027 -11.9510250  -9.1082020  -7.1779127  31.3135357
  -9.7985010  -6.7461157  31.7770233  -9.5618868  -7.7715912  30.6982880
  34.1756783 -14.9204569 -30.7590485  34.5227928 -14.5292702 -31.6010914
  33.2399902 -15.0296984 -31.0741558   2.6028621   6.2353659  44.6725349
   2.6242089   7.0089579  45.3493042   1.7465595   5.8522592  44.9242287
  23.6094666  34.8606300 -24.4291153  23.5145893  35.1283417 -25.3987827
  22.7618027  35.1987381 -24.0400600  12.3719749  -3.6072578  22.5742283
  12.3038654  -4.1966429  23.3595734  13.2882557  -3.6586275  22.3172588
  22.7364006 -26.6186218   2.3844931  22.4673443 -26.9744549   3.2731335
  22.0857143 -27.0511703   1.7816993  11.3030548 -14.0218105 -14.1053534
  10.7145996 -14.5640211 -14.7673721  11.9132662 -13.6295547 -14.7457800
  -7.8453059  -0.4968751  -4.5685821  -7.4178290  -1.3839989  -4.3657770
  -7.3679905  -0.1790713  -5.3083057   1.2710265 -28.3528233 -38.0577660
   1.2976894 -27.3534603 -38.0418167   0.9729252 -28.4903660 -37.1722946
 -16.4900379   1.3671997   5.7966518 -15.6049871   1.3801945   5.3471475
 -16.5233212   0.3948427   5.9264221 -34.2068558  -5.2287412  27.4489498
 -33.8494492  -5.9590611  26.9220428 -34.8882332  -5.6596613  27.9590244
  -1.7063184 -18.3185444  42.5687256  -2.2221229 -19.1652203  42.5837135
  -1.8087636 -18.0979309  41.6276779 -13.2748613  21.4425640  22.4718475
 -13.0819712  20.9834118  23.2695942 -12.6350327  22.1527348  22.4489117
  27.5098286 -12.9667816 -42.6761932  28.2631149 -12.3544102 -42.6446724
  26.9535217 -12.6305180 -42.0079308  -6.8476477  42.6085587 -16.4950638
  -6.0823526  42.4157028 -17.1309204  -7.6143904  42.4884109 -17.1038799
  40.4343338   2.9998252 -29.7084980  40.0186653   3.4913373 -30.4109974
  41.2821312   3.4882243 -29.6704865  27.7132225  -0.8550975  32.0723610
  27.0865364  -1.6140134  32.2270317  28.1854420  -0.9679509  32.8797760
 -36.1355209 -15.0580873 -25.6801949 -36.9164391 -14.7202406 -25.1439991
 -35.7950516 -15.7555914 -25.0918674  15.1190653  37.7847862  -2.9449930
  16.0708961  37.7863083  -2.5623035  14.6575403  37.4752655  -2.1427202
 -28.1025314 -32.6565018  -4.0930924 -28.8629761 -32.1565819  -3.7610514
 -28.2154427 -32.5126724  -5.0662160   1.5664430 -27.5735550   1.2413286
   1.0512877 -26.7163696   1.0554688   2.2364142 -27.5876656   0.5474805
   2.1006119  -3.4018862  28.6548290   2.0101349  -3.7606354  27.7352753
   1.5409838  -4.0372310  29.0898666  42.4834900 -13.4811964 -21.5571232
  42.6732407 -13.8427210 -22.4564476  42.7845078 -14.1975012 -21.0222950
  -1.3565731 -27.4097862   3.2025237  -1.7219926 -26.9841862   4.0346408
  -2.1339731 -27.2518997   2.5941150 -21.3106785   3.4066274  -7.5356779
 -21.2098503   2.8367412  -8.4049311 -22.2761288   3.6336541  -7.6751971
  14.3294401  -0.0835747 -12.9127874  13.5335207  -0.0870844 -13.5575886
  14.3817854  -1.0849153 -12.8219414  13.6858521  23.7781448 -17.6555290
  14.5593042  24.1857071 -17.4884834  13.2804508  24.0017776 -16.7863026
  12.6109133  36.3138161   5.8156881  12.7642441  35.4380875   5.3724523
  11.6717787  36.4354782   5.5947871   7.3769050  20.5213661 -29.0407028
   7.4962983  21.5227890 -29.1159859   8.1855803  20.2857723 -29.5125923
  17.8396988 -31.2300720  34.9928436  18.4887581 -31.6401577  34.3343620
  17.5742397 -30.4447556  34.4290962 -10.8106117 -17.9544506 -14.0934811
 -10.2208538 -17.5226460 -14.7628422 -11.6412487 -17.9596882 -14.5722475
 -44.6696625   3.0035195 -27.3989754 -44.0859566   3.1412635 -26.5969162
 -44.0110626   2.5159616 -27.9707890 -29.0284042   9.3526649  11.9815569
 -29.3440456   8.5222940  12.3074570 -29.7603493   9.9216146  12.0673504
 -33.1417198 -38.4824829  -3.7799826 -32.8703918 -38.6737862  -4.7590036
 -34.0997086 -38.4932327  -3.9000649   1.6258106  -3.2088871  40.3480835
   1.8901303  -4.0704160  39.9658546   0.7023791  -3.2222779  40.1752930
   5.2020364 -19.0294781   8.1655827   5.5053887 -18.5982094   8.9726038
   5.9619131 -18.7745457   7.5713992 -25.8148193  27.4112911  -9.4903326
 -25.5207672  26.6878624  -8.8949184 -26.5421448  27.7806492  -9.0362158
  35.2797394  21.7638187  -0.4698140  36.2909775  21.6736317  -0.3761404
  35.3106766  22.6494102  -0.9000410  -7.0987225  33.9514084  34.6486969
  -7.9639320  33.4624748  34.7629471  -6.8048782  33.3841629  33.8402977
  18.7373199 -12.3156939  35.0769882  18.8906422 -12.9370737  35.7679863
  19.6508808 -12.0882998  34.7470589  -4.3731875 -17.9730797  29.1819172
  -4.9764767 -17.8526306  28.4198322  -3.7435112 -18.5841808  28.7194576
  27.6177673 -24.6305923   7.0971932  27.0960503 -24.0632095   7.6604195
  27.1367702 -25.4842491   7.2752972  38.3919868  -8.7157259   1.3166708
  39.2319565  -9.1872053   1.2324595  38.1290131  -8.6326981   0.3995138
  30.8342152   0.0736186  18.7120781  30.8267040  -0.6110848  19.4036179
  30.1957664  -0.2773197  18.0745316  36.7136497 -22.5815792  -7.6034307
  37.1517525 -23.0096569  -8.3393412  35.8436356 -22.9661121  -7.6404748
 -20.5702744 -16.6491756 -21.6751137 -20.9036140 -15.7948103 -21.4107189
 -21.3626308 -16.9675598 -22.2280846  40.4317093 -13.3580847 -26.5627861
  39.4641762 -13.4371462 -26.5510292  40.5903168 -13.3721771 -27.5184422
 -19.7588902  -4.3078361   0.2469058 -19.1179199  -4.0111351  -0.4261880
 -19.9258327  -3.4148028   0.6595125  12.9209375 -23.3548775  25.8149433
  12.0484858 -23.1657963  25.2972698  13.0937347 -22.4051018  26.1018715
   4.1245508 -39.2444115   9.9185143   4.9508357 -39.0576172   9.4857521
   4.3924470 -39.7373619  10.6717453   9.7542400 -17.5670528  31.8378468
   8.8962364 -17.2649021  31.4132195  10.2260952 -16.7203884  31.5176678
  21.4227676 -23.9770966 -14.5332785  22.0628796 -24.7284622 -14.6051712
  21.2509632 -23.8859119 -15.5669327 -17.4288788 -19.0127850 -12.1590357
 -17.5955601 -18.1365280 -12.5456667 -18.2358608 -19.0585327 -11.5611391
 -11.2190266  22.1555176   4.9263263 -10.2846355  22.4335270   4.9454699
 -11.5375414  22.4998531   5.7623472   1.8282107   2.0020678   5.5934653
   1.9683808   1.8386538   4.6132817   0.8377371   2.0018289   5.6663857
  38.5354080  12.4536371 -13.2531843  39.2946930  11.8380861 -13.3845387
  38.2231331  12.0649729 -12.3849325  14.7181873 -39.8298187 -23.0768661
  15.5972185 -40.0638657 -22.6327877  15.0577974 -39.4291496 -23.9055176
  26.9528923  14.2637014 -34.6938782  27.9180851  14.2082376 -34.8171349
  26.6267605  14.0495548 -35.5693207   7.4416318 -17.4265213  -3.3534498
   7.7273083 -18.3488045  -3.6483800   8.2684689 -16.9837036  -3.5874026
  13.4981308   4.7466903 -10.5828781  14.4671278   4.9432712 -10.7123089
  13.4873867   3.8118567 -10.6804523  12.5573826  37.4691353 -18.1999474
  12.6358767  37.9560051 -19.0552044  13.0131245  38.0981712 -17.6110249
  -3.2673264 -12.9974232  21.6946068  -3.8696344 -13.0966702  22.4439049
  -3.4933171 -13.8944225  21.2505760  -8.8692636   9.9804049  11.6310024
  -9.5252905   9.9983826  10.9111052  -8.1354237  10.6291742  11.3007956
 -15.8929949  20.2651806  -5.2457623 -15.5808363  20.8773746  -5.9747710
 -15.8218288  19.4254971  -5.6768541 -38.7655678   8.4066877 -18.1801701
 -38.0766525   8.1247005 -17.6428947 -38.8185501   7.8160172 -18.8907452
 -41.4109268  30.7985973  -2.4886680 -41.2768097  30.6893578  -3.4673610
 -41.8862953  31.6389771  -2.4823477  39.7170181  23.6091328   8.0916586
  39.8403168  22.6722660   8.3149052  40.6730309  23.8987350   8.0429993
  13.9662924  37.1185799  -6.6865325  13.4085169  37.9126511  -6.4147453
  13.2898445  36.6556282  -7.2167754 -10.6108837   0.1349444  -0.2289690
  -9.8211803   0.6635110   0.0668193 -10.1261902  -0.7032393  -0.4589139
  29.5602455 -25.0955276 -18.8171177  30.5182228 -25.1781101 -18.9959488
  29.1888008 -25.7279873 -19.4537773 -31.1842232   3.7448208  35.6295853
 -30.6977367   2.9308577  35.9658585 -32.0410347   3.6473448  36.1180763
 -43.1037369  -5.3339634 -26.5317421 -43.0583153  -4.5308685 -25.9931107
 -42.3619118  -5.0709138 -27.2229099  -8.3728628 -41.2005234  -6.1297336
  -8.7545834 -40.6706963  -5.3718657  -7.6444511 -40.6734581  -6.4396276
  15.9262037 -31.2976837 -34.1827965  15.2514839 -30.6750622 -34.6244164
  15.9458342 -30.8936901 -33.3045578  24.3631420 -17.3473530 -37.9687576
  25.1772995 -16.9449959 -37.7003937  24.5840225 -17.5509586 -38.8642998
   7.5232630 -28.8460312  11.9542742   8.1342402 -29.3036633  11.2825384
   8.1537714 -28.8567600  12.6601553 -40.9784737 -15.3583784  17.5377541
 -40.0305977 -15.6488323  17.5063801 -40.8175430 -14.4107542  17.8579407
 -11.8073425  20.6183720  32.4792557 -11.4189672  20.0229816  31.7543163
 -11.6068583  19.9758377  33.2570839   3.5220294  14.1939440 -13.7761841
   3.7337213  13.4259844 -13.2186852   3.5338435  14.9316578 -13.0987482
  15.4733248  34.4146614  -2.6447530  14.6631298  34.3906326  -3.2523899
  15.0130129  34.9017677  -1.8921824  30.9565907  -4.0586162  26.5042305
  31.8130035  -4.1653180  26.0880432  31.1557446  -4.1875916  27.4518929
 -27.2697830  -7.8708496 -29.8235226 -26.6901932  -7.3810711 -30.3981895
 -28.1408691  -7.6178241 -30.1823235  -5.9281878  15.7448854 -36.9217300
  -5.2842174  16.3905106 -37.2703056  -5.3040476  15.1538811 -36.4608459
  32.0276070  36.6450081 -14.5076637  32.9559898  36.2655563 -14.4109125
  31.5342693  35.9305649 -14.0415068 -15.9049606 -17.7401180  25.1379070
 -16.6500683 -18.3527966  25.4824181 -16.2659492 -17.6026306  24.2262497
   1.6027746 -16.7503376  18.4966831   1.3968517 -17.4123898  19.2081604
   0.7887995 -16.7954540  17.9196587  -7.3257217   3.4293962  26.8116150
  -6.4981542   2.9197302  26.6382904  -7.5566730   3.5593870  25.8880177
   5.6805353  12.1467209 -24.4929085   5.3332839  12.5177231 -25.3528728
   6.3161860  11.5263319 -24.8360348 -22.3741894   9.8742228  42.3789101
 -22.9700413   9.8038979  41.6723328 -22.4946785  10.8267441  42.6633148
  28.5574608  29.0448093 -10.5535040  28.8327293  29.7114391 -11.1739988
  28.1056690  29.5952034  -9.8804626 -10.5117426 -14.4640770  -2.8370581
 -11.4386301 -14.6708775  -2.6609287 -10.3302670 -13.7476702  -2.1690319
  25.9821453  -7.2967358  16.9871426  25.2646141  -7.4502645  16.3670673
  25.7794018  -7.8778009  17.7231503  -0.0629157 -16.4198246  28.4283237
  -0.9654521 -16.7070351  28.6367092   0.2337340 -17.2063427  27.8659172
  34.2899055  36.8097229 -17.8703671  34.9182320  36.0855942 -18.0602245
  34.0029297  37.0013390 -18.7520618 -13.2161770  39.2066193  14.4061193
 -13.3498573  38.5035896  15.0029545 -12.6022463  38.7484627  13.7789907
  22.4457054  35.9150658  -8.6411266  22.6994114  36.1189690  -9.5536480
  21.9571533  35.0542793  -8.7754850   7.7185097   6.4497399 -40.9985390
   7.5578890   6.5386009 -41.9898300   7.8771706   5.4823222 -40.9302711
  24.5962448 -27.4845753  34.8971672  23.6620998 -27.3165798  34.8685379
  24.9729996 -26.6256123  35.1841354  -3.2735693  12.1660080 -13.5299053
  -2.3160009  12.1228848 -13.8820734  -3.2895701  11.2286196 -13.3171711
   0.5373995  11.1573563  44.2094421   0.2957121  10.2542629  43.9247589
   1.4908208  11.1757154  44.0136414 -21.7516346 -41.9172516 -19.6576385
 -22.3319206 -42.4669189 -20.1515198 -22.1781044 -41.8955002 -18.8026428
   4.6314259  35.9337654 -19.1982117   4.3865523  34.9783211 -19.0369473
   3.8950520  36.2331963 -19.6598911  31.4993877  -3.1159527 -22.1881618
  31.7490692  -2.3570411 -21.5951023  31.1748123  -2.5904496 -22.9586143
 -11.9479885  34.8473511 -23.5410862 -11.9887552  34.1376305 -24.1812534
 -12.3367491  34.3916016 -22.7440643 -44.0012627  14.4670229 -27.7415752
 -44.1255112  14.6793022 -26.8235779 -44.7865906  13.8650427 -27.9253368
  20.5135899  37.2797050  20.2990074  20.1400585  37.7284813  19.5728016
  19.7814407  37.3299065  20.9730358  10.4509497  14.7856331  -8.3502045
   9.8306437  14.1215811  -8.1082850  10.0398359  15.5676041  -8.5785475
  41.4028587 -13.5511675   2.2926025  40.6173363 -13.0130234   2.4407039
  41.8881187 -13.3680506   3.1268091  -4.4268088  16.4531250  29.2528496
  -4.6739841  17.3704834  29.5270634  -5.2019067  16.2854347  28.6151943
  10.3922796  26.8525925 -26.8735733   9.8599501  27.6908894 -26.9787788
  11.1731491  27.0452480 -27.4410591  14.5894918  40.6102829 -17.9721336
  14.7542534  40.9794617 -18.8735847  13.7001848  40.9382591 -17.7571449
  14.8021917 -41.0055313  21.1400070  14.5644608 -41.8577042  21.5506916
  14.0606527 -40.3737221  21.4736958  26.0371017  32.0544701  24.0962601
  26.7279739  32.6723938  24.3002758  25.3751545  32.2696495  24.7821922
 -37.0731735 -31.7381115 -20.2635384 -37.6132507 -31.2324314 -19.6026649
 -37.4240417 -31.3863850 -21.0665150  19.6478176 -28.2321167 -25.6133957
  19.5187263 -27.9253368 -24.7225323  19.3721256 -29.1949749 -25.5599823
 -31.9144230  -0.6288892  10.5194731 -31.7686539  -1.1728674   9.7548389
 -32.8344955  -0.3511193  10.3310995 -36.6328812  -2.5118542   5.2984366
 -36.7193985  -3.3143404   4.7605238 -37.5040131  -2.3309288   5.5858116
  21.5912590  32.4141388 -25.8463287  21.6673164  33.2609634 -25.3579998
  21.3065605  31.8131866 -25.1555176  -4.5002947   8.4528656 -41.0676231
  -4.4203992   7.8975630 -40.2769394  -5.0449028   7.8455358 -41.6678810
  16.9529896  -7.4782019  30.2938938  16.0295143  -7.6893964  30.0198421
  17.0742798  -6.6256552  29.8949890 -13.5626955  11.9550018 -34.1941833
 -13.8246202  11.4613934 -33.3675766 -12.8446245  11.3374109 -34.4468575
  -8.8866844  38.1134796 -20.1858139  -9.2301798  37.5202179 -19.4951687
  -8.9815664  37.5144272 -20.9382973 -41.4851265  24.4219055   0.7297940
 -41.4707260  24.3760815  -0.3014137 -42.0386353  23.6209850   0.9053112
  17.1974907  14.1686430 -20.3300838  17.8601475  14.1331854 -21.1379471
  16.5321712  14.6746283 -20.8303280   3.3681288  38.4387512 -29.9617996
   3.6623223  39.1550827 -29.3637352   4.0631375  38.5796204 -30.6654091
 -15.6393518   5.4395890  -3.3495970 -15.1437025   4.5685978  -3.6094928
 -16.5316620   5.2129602  -3.6754005  10.9125662   1.0917457  15.4421959
  11.1603069   2.0529783  15.5565414  10.5595455   0.8785781  16.3208427
  36.1054573  28.0688419  11.1510143  36.8583374  28.5637302  11.4251442
  35.9157906  28.4510498  10.2868261 -37.0857391 -15.6672144   1.3823593
 -37.0077934 -16.1502037   0.5732120 -36.6059570 -16.2313576   2.0104637
 -28.8688297   5.1996269  36.1676025 -28.5435867   4.9343696  35.2801399
 -29.8185863   4.8139052  36.1011353  10.8137283  25.3458920  28.9547806
  11.0259218  24.9268131  29.7981224  11.6999884  25.5731449  28.5715961
 -18.5798473 -19.8742485 -34.2384682 -17.6184025 -20.0424881 -34.5212402
 -18.9942837 -19.7431145 -35.0711823 -40.5442810 -19.7462444  25.4674320
 -41.3895073 -20.0005665  25.9345322 -40.0142784 -20.5986843  25.7684555
  10.3761005 -23.8682175 -33.4542580  10.0459166 -23.0354385 -32.9954681
   9.5767241 -24.1495571 -33.9283028 -22.8786030  27.0594330   6.0232477
 -23.0550594  26.3079948   6.6997285 -22.1646042  27.4859943   6.4590802
  -7.0387321  33.0888786 -10.2564030  -6.9253974  33.1917572  -9.2913961
  -7.0066247  34.0179977 -10.5254383  29.1876869 -10.7625065  39.6013641
  30.1356716 -10.6113405  39.7060890  29.0783253 -11.7053041  39.9139709
 -41.2953835  -6.8040066  32.2283173 -41.1255035  -7.2806911  33.0736542
 -41.1167488  -5.8905644  32.4780540  24.6431465  21.2243652 -17.3738422
  23.7377167  21.2735481 -17.7109699  24.8143787  20.2543869 -17.4973316
  21.2810764 -29.1686096  18.5150051  21.7594337 -29.6903038  17.8552647
  21.4499550 -28.2096252  18.2768955  11.7427645  11.1977119  15.0635824
  12.1591778  11.0813484  15.9212389  12.2003317  12.0047722  14.7164536
  22.9821148  22.8390751  -9.4472647  23.2691898  23.2168388 -10.2784109
  22.9315224  23.6177769  -8.8731995  41.3636055   7.1564565   7.3650498
  41.7436180   6.4082365   6.9294152  40.8261375   6.7541409   8.0406151
 -38.8240128 -13.5811491 -25.2120667 -38.4297523 -12.7429848 -24.8467178
 -39.1688042 -13.3594170 -26.0599403   0.2367920  20.1991482   0.7765847
   0.2419637  20.9727840   1.3845615   0.1111634  19.4605522   1.4425684
  11.6233549 -18.6142426 -31.0306454  11.6363106 -18.1864243 -31.8863144
  10.6894674 -18.3864136 -30.7327404 -20.1687603  14.7785358 -33.4184380
 -19.3225842  14.5345469 -32.9489670 -20.2550735  15.6575890 -32.9859390
 -25.7530594 -22.5894871   1.6602972 -25.6895008 -21.7886162   2.2337384
 -25.4344082 -22.2446651   0.7882646  41.7822075  -6.1871238  -4.6376295
  42.2849350  -5.6724849  -3.9906590  40.9884872  -5.5688772  -4.7291379
 -13.0700369 -11.7702818  14.5797091 -12.1756468 -11.8415947  14.8874826
 -13.4444771 -12.5874634  14.9478970 -27.3038673  35.0998344  10.0089474
 -26.4085693  35.3860435   9.9695110 -27.8132572  35.8539276  10.1951332
  36.7945251 -33.0489235 -20.5991726  36.1863365 -33.0471001 -19.8294773
  36.6059570 -32.1950455 -21.0067787  -9.6974878 -14.3504791 -40.5228729
  -9.3002100 -14.0536947 -39.6930656  -9.7060566 -15.3083124 -40.3174477
  20.1542568 -12.2414904  43.3735161  19.8750629 -11.3433046  43.7749557
  20.3002434 -12.7347212  44.2234497   4.7264585  10.4776745 -10.2726202
   5.6576061  10.2448730 -10.4553738   4.3565736   9.5353594 -10.2864437
  24.7374554   0.9613478  -5.0314541  25.4011707   1.3719435  -5.5992589
  24.5699425   0.1339464  -5.5021138 -13.6535311  -5.4669414 -40.5817795
 -13.1350794  -6.1470881 -40.0892830 -13.8077354  -5.9985657 -41.4262505
  -8.1494446 -37.6339493 -23.1138077  -8.8401308 -36.9573326 -23.2697201
  -8.4279184 -38.0265045 -22.3107719 -17.7643070 -33.0090523 -25.7321548
 -18.0431957 -32.5073662 -24.9216461 -16.9193020 -33.3351059 -25.3846703
  -7.4947395  -4.6976609 -38.6153755  -7.1749616  -4.1924338 -39.3606758
  -6.6908436  -4.8280101 -38.0587082  25.4982090  16.2191811 -21.4302826
  26.0492554  15.5972414 -21.9135399  24.6832809  16.1572418 -21.9436646
 -31.7944813  25.2479534 -19.0910702 -31.1281166  25.5281200 -18.4113293
 -31.4384842  24.4480133 -19.3834724  29.2949677   4.6233239 -26.9150162
  28.5132885   4.8602815 -27.5471783  29.7899876   4.0314808 -27.5573750
  13.6846189 -33.1027946 -13.8369141  14.2826633 -33.9190178 -13.8081980
  13.4491234 -33.0894661 -14.8051586  19.3882084  30.4316120  23.2452488
  18.4205227  30.4851875  23.4053268  19.7204227  30.1057911  24.1272507
 -17.7197704 -38.1854782   1.3021245 -17.6410828 -37.2546349   0.9612592
 -18.7316151 -38.2365990   1.2435812  20.3675423  -4.1204972   9.7457256
  20.3776779  -3.8221059   8.8498325  21.1311359  -4.6925836   9.7416344
 -21.7127914 -11.7682133  33.6960220 -22.4936867 -11.5279436  33.1419830
 -21.7734528 -11.0766029  34.3992653 -38.3443985  17.9654922 -17.1687031
 -37.9454231  17.7045822 -18.0144043 -38.3387833  18.9419327 -17.2313881
 -19.9524479 -29.5807018  -3.1584628 -20.4615993 -30.1702442  -3.7784572
 -19.5294399 -29.0348949  -3.9535127   9.5883236  42.9106903 -16.7435169
   9.6190434  42.0010033 -16.3143196   9.2131386  43.4649544 -16.0078220
  -4.9484115 -33.2346954   2.6466234  -4.2426558 -33.6565971   3.1720202
  -4.7350726 -33.6542969   1.7687198  12.7359676  -5.8573866  32.3324852
  13.1608257  -5.0410872  32.7275505  12.5242777  -6.4230757  33.0570259
 -29.2466011 -12.8023996  34.7795486 -28.4234104 -12.6108074  34.3083725
 -29.1247311 -12.3341217  35.6756477 -13.0712109  19.1440582 -38.3557320
 -13.5561075  19.9193935 -38.5028381 -12.3162498  19.2762508 -38.8669930
  23.5981503  -2.5681674  15.4637547  24.1967583  -2.1294608  14.8058119
  23.2973633  -3.2686841  14.8625193 -29.4776211  -8.3849945  -0.1736535
 -28.5442810  -8.0723209  -0.1748252 -29.8421879  -7.8025541  -0.8922421
  22.2375641 -28.3943806 -25.2629051  22.2455521 -27.7253895 -24.4875755
  21.3127155 -28.3914890 -25.4790993  23.8085213  22.1788387  22.7022896
  24.4174519  21.7439022  23.2733212  24.1252842  23.1335583  22.8374138
  -6.2263265 -26.7252102 -25.7896690  -5.6058350 -26.1484890 -25.2559776
  -5.5994620 -27.4061794 -26.1065884   0.7681510  14.8453236  -5.2797918
   0.3834583  15.0229464  -6.1400833   1.7063330  14.6584349  -5.4902596
 -40.7662430  -7.3566289 -28.1851578 -40.8531532  -6.3072457 -28.2332058
 -41.5333977  -7.4969902 -28.7612438 -33.0487213 -24.1341572   5.2560134
 -33.2001419 -23.7260323   4.3752551 -32.8551331 -25.0556564   4.9912381
  -6.7620730  29.0404682 -39.7839050  -6.1519923  28.7809067 -39.1126595
  -6.2233777  29.5443001 -40.3795319  12.4142017 -20.5796108  25.5147057
  12.2898693 -19.6132469  25.3593941  11.6612253 -20.7604866  26.1340961
  32.9773598 -12.8899727  23.0250263  32.4995956 -13.2472324  23.8012562
  33.6346970 -12.3226318  23.4080009  -4.6970668   2.8142433 -27.8125134
  -3.8224161   3.2284927 -27.8975811  -5.2490053   3.6177728 -27.6888027
  29.6569977 -23.1539688  32.4717255  28.6990204 -23.1679268  32.7535515
  29.5939007 -23.0265579  31.5250835 -26.8246746 -31.3173103   6.6710758
 -27.7748775 -31.0033703   6.6702747 -26.9648399 -32.2168541   6.9357882
  22.5834808 -28.0242290 -20.8758717  22.1008091 -27.3535500 -21.3433666
  23.5150204 -27.7075195 -21.0746975 -26.9269028 -10.6055708 -29.7359772
 -26.9689217  -9.6773739 -29.5318756 -26.7368774 -10.5910282 -30.7275162
 -29.8540211 -22.4548473  15.3590994 -28.9657059 -22.5871048  15.8236313
 -29.5079803 -21.9227161  14.5921183  12.1369257  -4.1147695 -11.6591473
  12.9331064  -3.5401704 -11.6948175  11.4803276  -3.3614049 -11.5119877
  31.8299370  31.3315735 -17.0582733  31.0608330  31.9141102 -17.1377640
  31.5476246  30.6844921 -17.7920799 -15.1935368  -0.8896879 -23.2981853
 -15.9996386  -1.1200945 -22.7781906 -15.2682428  -1.5652535 -23.9971123
 -19.3320522  36.1952629 -30.0004559 -18.5075092  36.2803955 -30.5485802
 -19.2887192  35.3031731 -29.6691856 -22.7433796 -17.9856071  29.9755516
 -22.8093872 -18.8047562  30.4493923 -22.0877762 -17.4787865  30.4902039
  36.6094513 -25.7860851 -25.1697903  36.6249275 -25.3306942 -26.0459728
  37.5756111 -25.7513199 -24.9287090  30.4994926   2.7134812   2.3183010
  29.8731346   3.1125526   1.6603123  30.1924267   1.7706991   2.3272963
 -32.2673645  25.8485489  13.2693624 -31.3274155  25.6019611  13.1351986
 -32.2251930  26.2347298  14.1541557 -12.0208521 -13.5012112 -31.6095409
 -11.6017122 -13.9081097 -32.3867226 -12.1733894 -14.3017969 -31.0211353
 -19.5367432  -4.4712300  30.6247272 -18.7785873  -5.0228143  30.2698479
 -20.1993217  -5.2470298  30.6100826  -6.6183362  35.3906364  23.4029770
  -7.4962411  35.6919594  23.1963539  -6.6955895  34.4542236  23.1098728
  12.3352003 -26.5012684  39.3411751  12.1446581 -25.8425579  38.6840477
  13.2279520 -26.8813858  39.1405563   5.8625355  32.5364075  22.5914307
   5.4002070  32.4943314  21.7788258   5.4189987  31.8183231  23.1098537
  14.1992502 -34.0379944   4.2394614  14.2951450 -34.2045364   5.2300892
  14.3418665 -34.9275932   3.8335736 -31.6589718 -17.1136703 -30.1823959
 -31.6179543 -16.6554737 -29.2911091 -32.6366997 -17.3754368 -30.2182484
 -23.6956081  -9.6793022  21.7565212 -23.9494896  -8.8224430  21.3956108
 -23.0102539  -9.3457680  22.4648685  17.6670456  24.3096733 -13.1166964
  16.8630657  23.7566357 -13.0377131  17.5181236  24.8513985 -12.3202190
   9.1613655  -9.8517008 -36.6847687  10.0146284 -10.2849779 -36.2950554
   9.5921249  -9.1886768 -37.2573776  42.5870476  -1.2112848   6.0232778
  41.7744141  -1.5261729   6.5002604  43.2721519  -1.4090518   6.6863012
  15.9854050   2.0806763  -8.0218039  15.7130575   1.2017040  -8.3042669
  16.3218498   2.4420891  -8.8842392  25.2637806  -9.9147167 -12.6500387
  25.0129604  -9.8509350 -13.5939913  24.4440422  -9.5595465 -12.2023849
  -8.6800280  43.9058800 -25.9475327  -9.1654663  43.0432014 -26.0559807
  -9.2911854  44.5105934 -26.4582138 -35.9593773 -19.9565678  10.4770889
 -35.4871979 -19.8451176  11.2712708 -35.5216103 -20.7360096  10.0777111
  10.4342585 -13.2371006 -42.1252632  10.7169056 -13.8744965 -41.3980408
  11.0211000 -12.5263577 -41.9007225  43.8645821 -21.8334160 -19.4755573
  44.3189049 -21.0078487 -19.1869698  43.2241707 -22.0804710 -18.7676926
  29.1362629  -9.0630083 -23.2114487  28.8723907  -8.9310551 -24.1734123
  29.7774448  -9.7898417 -23.2994251  17.4649162 -12.0978975  32.4762764
  17.6394920 -12.9598436  32.8713760  17.8415985 -11.4970713  33.2250175
 -41.4399719 -25.4570522 -20.7762699 -40.6850891 -25.3869362 -20.1289883
 -41.9908638 -24.7129173 -20.4458179 -36.9904671  -8.3740206  13.6533203
 -37.9555016  -8.4181366  13.3922787 -36.7540283  -7.4299607  13.3305874
 -24.6719112  38.0129356 -21.0326443 -24.0244770  38.5160065 -21.5950470
 -24.5578384  37.1307411 -21.5161762 -26.5968285 -23.3059521  19.0452843
 -25.8068542 -23.7731705  18.7987576 -27.1638927 -24.1159153  19.3205032
  31.5655670  16.4944668 -17.6285725  32.0292816  17.2901020 -18.1050129
  31.1833973  16.1357517 -18.5094242  -4.9610419  23.8785629   2.5796669
  -5.4470611  24.6623707   2.9055095  -5.4890323  23.1961575   3.1391375
  25.4315453 -21.1763401   7.4034352  25.7409649 -21.1134682   6.5207005
  24.6275520 -20.6096420   7.3584204  38.8338127 -22.9691525  10.4245138
  37.9885941 -23.1184750  10.0121708  38.7056046 -23.2994156  11.3708134
  19.8920441 -32.7477493  33.5149345  19.0026817 -33.1563644  33.3071671
  20.2460632 -33.4559517  34.0574341 -21.5196438  -1.0344442  -2.0360644
 -22.2551460  -1.3130658  -1.4311775 -21.5247612  -1.8750052  -2.6360154
  -4.4908996  40.9187927  -9.0275345  -4.6554980  40.9641724  -8.0676136
  -3.8606200  40.1747169  -9.0238895 -23.8597183 -34.0323143 -11.9647064
 -23.0722713 -33.4790611 -12.0596218 -24.4951553 -33.4912300 -12.4228582
   9.8178387 -33.9956017  30.6128922   9.7685919 -34.6017189  29.8307362
   8.9684935 -33.4602051  30.3744640 -29.9241810  22.7461452  24.9186344
 -29.7948418  21.8998871  24.4656563 -29.2589512  23.2877712  24.3922749
  -9.6937704  29.3707809  -6.1426630 -10.0587435  28.9709873  -7.0087609
 -10.3799944  28.9337101  -5.5223203   1.2243570 -33.0207405 -13.5528355
   0.9237511 -32.6432114 -14.3631334   0.5798470 -33.7501106 -13.3708897
  10.7003946 -34.4412727  14.1683846   9.9042377 -34.2640076  14.6840982
  11.2792797 -34.8171806  14.8908796  -4.4427514  19.1172943 -28.0571232
  -4.1133246  18.4311714 -28.6904736  -3.6494246  19.6646328 -27.9821472
  44.2367020  17.0814648 -24.8038025  44.2727623  17.0287189 -23.8350449
  44.5828781  16.1764412 -25.0669250  42.8078804  -5.1458464 -11.5967293
  42.5473557  -5.9471102 -11.1011705  43.1648483  -4.5962796 -10.8230028
  31.4274025  19.3163166  -3.8975854  31.6564064  19.0223827  -4.7857342
  30.5253372  18.9693356  -3.7547901   4.3248348   3.0523090   0.2663626
   4.0278664   2.1224267   0.3758276   5.0229239   3.0138025   0.9783766
  22.0429993   6.0890145  -9.6647558  22.1137886   7.0586448  -9.4834480
  21.2569294   6.1058969 -10.2630129  15.4498777  34.9868546  22.2083435
  15.5808802  35.3610954  23.1139431  14.6510801  35.4870796  21.9693336
  27.2158489 -16.7448750  15.1751089  26.9503746 -17.0032978  14.2410097
  26.5581493 -16.0496941  15.3448286  28.5050011 -36.7483025  -4.1923180
  27.9386444 -37.2796631  -3.5412579  27.8192310 -36.3964195  -4.8154378
 -42.0974884  -4.6974792  13.2494278 -42.9698868  -4.2822528  13.3420067
 -41.4924126  -3.9400628  13.3736687 -31.4651489   6.8099751 -12.3535242
 -31.4836121   7.1245751 -11.4058619 -31.0144176   7.5459118 -12.8230209
 -10.6606102  30.4697075 -38.6138077 -11.4655228  29.9928188 -38.6303444
 -10.1294403  29.8182373 -38.0626259  28.3266373 -10.2955675  -1.9701800
  29.0833721 -10.1892815  -1.3104080  28.1391888 -11.2407160  -1.7925960
  26.5512295  44.2777939 -14.0428410  25.5400333  44.1756554 -14.2223587
  26.5085545  44.0512161 -13.1084347   1.5031867  46.4629478 -13.0351076
   2.2187598  45.9007225 -12.7748060   0.7665887  45.9071999 -13.2745266
  14.1051292  36.2764206  -0.8178066  13.2989016  35.7683945  -0.8402392
  14.3236790  36.3457718   0.0584052  25.2266693  16.3560429  12.4653835
  25.8187580  15.6540003  12.7332001  24.5177078  15.9015045  11.8954840
  37.2577705   5.0924339   1.0580580  36.9818459   5.5648203   0.2697880
  37.4159317   4.1941929   0.6966515  24.0774212  -1.5896250  -5.8935695
  24.9106541  -2.0300713  -6.0705771  23.8434525  -1.9545339  -5.0287280
  -0.6087816   1.9761962 -23.9465790  -0.1240625   2.0470448 -23.1341496
  -0.6122555   0.9710957 -24.1232510  12.6777754 -22.3130569 -13.9432831
  12.4187412 -21.9886551 -14.8840923  11.8390732 -22.7703724 -13.7220173
  -3.8445868 -15.3580990  17.5578117  -4.7770734 -15.7161093  17.3571930
  -4.0033507 -14.4204102  17.3418312  -0.4002386 -46.3856010   7.6252341
  -0.7882810 -46.7315254   8.4606476   0.5497300 -46.5727234   7.6956468
   3.7987125 -16.1533737  36.9149399   3.2863088 -16.5614395  36.2102814
   3.8124506 -16.9600964  37.5178757  -3.2636545 -12.4998074  38.1086807
  -3.2479329 -12.1359539  39.0015526  -4.1898561 -12.6432219  37.9187698
  34.0438805  15.0045977 -21.4101391  34.6288261  14.4431829 -21.9148273
  33.1681824  14.6799364 -21.7348824 -31.7485390 -24.0925827 -20.6802540
 -32.1352806 -23.8243904 -19.7463913 -31.4823608 -24.9743462 -20.4012432
 -15.5527411  22.7584362   1.1616520 -15.2444544  22.6018753   0.1780806
 -14.7164040  22.5198498   1.5516795 -20.3421993 -14.5978508  30.5258198
 -20.6217937 -15.3335371  29.9800835 -20.5189342 -14.8651552  31.4253063
 -11.2501545  37.1279182  26.8645859 -11.2775545  37.8217812  27.5483608
 -11.4025393  36.3248901  27.4790459 -11.4459801   5.2179699 -46.8408928
 -12.3713512   4.9820995 -46.6130753 -11.1865606   4.4036722 -47.3195152
  38.4967117 -29.2712650  16.1190987  38.9066963 -30.1737175  16.1544056
  39.1318054 -28.7523193  15.6413088   4.5043268  27.8809052  33.6530609
   3.6381338  27.6647644  33.2648811   4.3865137  27.5417309  34.5412560
 -32.7031097  20.7280655 -24.3451118 -33.4242744  20.9096870 -23.7188416
 -31.9720936  20.6632042 -23.7059574 -15.7103472  -3.9578946  -9.6844273
 -16.5901928  -3.7578449  -9.3618698 -15.1894970  -3.9436810  -8.8493071
 -12.9967289  -4.2820873  29.5765495 -13.5218000  -3.5735123  29.1850986
 -13.3320312  -5.0626321  29.1313896 -36.7075005   9.5557585  12.5513439
 -36.4646263  10.4782705  12.4286919 -37.6096382   9.5491896  12.8638859
   6.2003255 -10.5827494  23.4897766   6.6874690 -10.3520861  22.6256237
   6.5736470  -9.8686838  24.0471439  22.8662891  -7.5812664  41.3288765
  22.0057316  -7.7567968  40.9426765  22.6110344  -6.8781090  41.9718475
 -34.4321060 -27.6650562  -6.2481580 -33.7728195 -27.1653862  -6.7185249
 -34.8439713 -28.1816730  -6.9775634  -1.8796302   7.5397172 -11.8180189
  -1.3425586   7.3163676 -12.6370163  -2.5746474   6.8397555 -11.9024096
  24.1133976  33.7837563 -19.9008331  24.7238941  33.1955299 -20.3757973
  23.3255215  33.1704369 -19.8481503  -6.1976271  41.2306099 -14.4332924
  -6.6025596  40.4918633 -14.9638338  -6.4589014  41.9745865 -15.0720491
  -2.6765370   7.1426892  46.4983063  -1.9160320   7.4624596  47.1255798
  -3.0281672   8.0640688  46.3513756  16.7825260 -18.0810204  11.8340740
  15.9615889 -17.5808830  11.9689999  17.1789474 -18.0476131  12.7025833
  40.0852852  -2.0009577 -11.6056242  39.4653740  -1.5634990 -11.0251789
  40.7898712  -2.2165720 -10.9933271 -15.8665800  14.6241388  23.9453106
 -16.5045891  15.2858829  24.1074066 -15.6735792  14.7278509  23.0209351
 -35.1716728 -17.7448521  17.8302116 -34.2602882 -17.5405960  18.2662754
 -35.5879669 -16.8700886  17.9491501   7.3890028 -41.4253922 -28.6703548
   7.9924598 -41.2174644 -27.9880428   7.8753076 -41.2800407 -29.4388771
   2.7128363   7.2331481 -26.9276428   3.2517040   8.0461731 -27.0830574
   1.7974142   7.5099921 -27.0923786 -17.6363602  21.4062977  23.8630886
 -17.7206039  20.4939308  23.5690517 -17.1715851  21.2618771  24.7385941
  14.1105642   6.4348502  -1.7766453  13.3272696   5.8464642  -1.9030108
  14.7148685   5.7680845  -1.4052308 -13.4929867  -2.5276964 -14.9335794
 -13.5875349  -3.1888485 -14.3227797 -13.4883366  -1.7284093 -14.4524145
 -11.2068529  -3.7095642 -44.3552399 -12.1992235  -3.5633264 -44.2843246
 -11.2490168  -4.6122069 -44.7014427  32.1332245   1.7329849 -26.8774643
  32.2723045   0.9461244 -27.4407845  32.9867630   2.2193677 -27.0400620
  16.2789707  37.7045898  -5.4926119  15.2948198  37.6420937  -5.8203773
  16.1149540  37.7283325  -4.5180058  35.5077095 -25.3567505  -7.4514232
  36.0368423 -25.5003166  -6.6854730  35.6485748 -26.2274036  -7.9313631
   8.8366814   5.6791921 -22.5908604   8.8681984   6.6530962 -22.2663498
   7.9219737   5.4460039 -22.2314720 -29.5281124   7.3080840   4.8647604
 -29.7929916   6.4216809   4.5650535 -28.5903683   7.4187565   4.5074239
 -11.2759314   4.4518809  -7.2113953 -10.7873583   4.2328658  -7.9915199
 -12.1301565   4.1167464  -7.3274717  -9.7695427  42.6820183 -30.7978210
  -9.5999660  43.6484680 -30.4886227 -10.0090466  42.3004646 -29.9141998
  24.8330479   9.1015501  29.6957588  25.7544231   8.9327688  29.8173294
  24.7533646   9.2708321  28.7558384  22.7207794 -31.9360199 -33.4246140
  21.8347855 -31.8206825 -33.8949013  23.2929993 -32.0624123 -34.2114029
  -7.6699615 -27.1736450  -3.0411160  -6.9400034 -26.7161102  -3.5714936
  -7.5415840 -26.6636944  -2.1866331 -21.5597057  -4.2792797 -38.4773026
 -22.4753418  -4.5223379 -38.2826309 -21.3148518  -3.5728841 -37.8591690
  17.1544380  -1.7723289   6.3942337  16.2653351  -2.0330791   6.2310472
  17.4628277  -1.3721817   5.5865598   2.7028239  44.0748291  26.5063267
   2.5051932  43.9418335  27.4751053   2.8585076  43.1649551  26.1961098
  24.4656830   2.8499112 -32.9722900  24.4048176   1.8799860 -32.9327698
  23.5835495   3.0671833 -33.4007797  12.1108170 -28.2059784  24.9198532
  11.4732761 -28.7950077  25.4012337  11.6020222 -27.3644505  25.0118923
  22.1979733 -31.1242676  -5.2938356  21.6434345 -30.8399658  -6.0663638
  22.6692791 -30.2203236  -5.1633673 -19.1938114 -34.1011429  -2.4335952
 -19.1777534 -33.3123360  -3.0066137 -19.4333096 -33.7666893  -1.5347323
  29.7016697   2.7425027 -15.8064423  30.5549431   2.5008607 -16.2306309
  29.7232819   2.0883417 -15.0496502  19.7573433 -18.0387707  27.2156219
  18.9063377 -17.6904030  26.8252487  19.4042263 -18.3282509  28.0926247
  22.6598644 -37.9025269 -22.5186329  21.8555012 -37.3513870 -22.5846367
  22.7009506 -38.3468285 -23.4143600  17.2729855 -36.3815689  22.8458862
  17.0084248 -36.4260712  23.7764626  17.1028767 -37.3472977  22.6308899
 -14.3222132  19.9697247 -11.4468555 -13.5055141  19.7879200 -12.0191107
 -14.2488756  19.3204517 -10.7551823 -33.0006294  22.3157711 -29.7214775
 -32.0136719  22.1104012 -29.5662518 -33.1391258  21.5505199 -30.2783051
  39.5666962 -12.4771233  -7.8733482  38.9448051 -12.7611618  -7.1389503
  40.1593933 -13.3014536  -7.8117590  -1.7041650 -11.6191673 -11.4008436
  -1.8015568 -11.3246832 -12.3176680  -1.1740021 -12.4436245 -11.5585785
  29.6990776  15.6133204 -26.5712051  30.4518433  14.9995546 -26.5217304
  29.0596523  15.2302217 -26.0219288   5.6503267 -25.1579781  10.3885746
   4.9899888 -25.8914185  10.1047020   5.9658675 -25.5574322  11.2499065
 -29.0232887   6.5271316  19.8927460 -28.8097191   7.1178679  19.1782475
 -28.7059612   7.0058551  20.6771145  11.5796547 -11.1458874  13.2919378
  11.6739340 -11.0865107  12.3192568  10.7109480 -10.7358570  13.4369001
  -5.9373412 -36.3873787  11.4099455  -6.3301325 -35.5464935  11.6830778
  -6.3864312 -37.0053406  11.9853067 -25.6141033  11.3391371 -13.7660780
 -25.2326622  11.4708405 -14.6314220 -25.8357925  10.4189291 -13.7054558
   5.7099543  45.7818642   8.1142406   5.3123040  46.6348610   8.3172760
   6.5502987  45.8507690   8.5183039 -33.6788292 -34.7321548   9.5969429
 -34.4783592 -34.7725677  10.2089615 -33.3660088 -33.7978287   9.8533554
  20.4199924  -7.6016550 -50.1197128  19.6048450  -8.1223803 -50.3204536
  20.1863308  -7.2991581 -49.2288513  15.2652807 -16.5993900 -38.2890015
  15.4812994 -15.6590576 -38.2241364  16.0542202 -16.9646854 -38.7417297
  20.4686203 -35.5556488  12.2288580  19.7050724 -35.3175049  11.5613327
  20.6558800 -34.6966782  12.6050692  38.0935745 -17.2297840 -23.0387669
  37.9257202 -16.3522053 -23.3865490  37.4378395 -17.7789459 -23.4734802
  11.6936874 -33.4685059 -16.5108643  10.9203415 -33.0260849 -16.1737881
  11.3881388 -34.4427643 -16.3678989 -10.3981800   3.5584736  -9.9945555
 -10.0601921   3.3066404 -10.8689356 -10.2827940   2.7363117  -9.5117006
  26.4988136  18.6057949  26.0171509  26.4266872  18.4865952  26.9952621
  27.4064159  18.2955017  25.8731308  41.5680542   5.3448434   3.6368687
  42.0622101   6.1430640   3.3885844  41.4128380   4.9846182   2.7157431
   5.7073965  32.1052818   7.4929528   5.2018723  31.8754101   6.6805534
   5.9601579  31.2412109   7.7789898  14.4983597 -25.7295132  25.5187607
  14.4175653 -25.9536228  24.5787697  13.8088560 -25.0448360  25.5687313
  13.1917210  27.6856155 -16.5194530  13.7261477  26.9986458 -16.0131512
  12.2864008  27.1752071 -16.5211258 -27.9902668 -42.6935349   2.5812864
 -27.3537178 -41.9670982   2.8873248 -27.5424595 -42.9220543   1.7266705
  31.1162548   5.4143691   1.9766448  30.2595005   5.4919262   2.4390478
  31.2503910   4.4527574   2.1955223 -33.7465706  -2.3277848  30.5896397
 -33.1429825  -2.5607240  29.8412056 -34.3222733  -3.1493533  30.5978203
  -5.9145007  31.5148983 -12.6879539  -6.6061382  32.0566635 -13.1062069
  -6.0585093  31.8251991 -11.7552786   5.8215256  15.8731871  29.6594200
   6.0315647  15.8840761  28.6933975   4.8950024  16.2839432  29.5924606
  26.0893593 -31.8972721 -10.4720058  26.4788437 -32.7919922 -10.4968309
  26.8739338 -31.3370857 -10.7003231  26.6714382 -26.1470585 -30.1787701
  27.5313377 -26.1332970 -29.7067986  26.1723309 -26.6638813 -29.5354347
  -3.1749902  39.3027420 -26.4250240  -2.9280856  38.7100716 -25.6760197
  -2.4566081  39.1069183 -26.9910965  -8.8457146  -4.7130432  -9.7245150
  -8.5514708  -4.8610897  -8.7989216  -8.0206270  -5.0537381 -10.1747255
  26.7576313 -16.9169140  -4.6062670  26.9394054 -16.6344337  -5.5180068
  27.2992554 -17.7625885  -4.6566253 -21.3974762  31.6796360  20.4545498
 -21.3144932  32.1691513  19.6424980 -21.5767498  32.4407120  21.0644112
  14.5094862  12.1661701 -16.7586422  13.6786757  11.7927513 -16.3439007
  14.4988136  11.5698404 -17.5645771  29.3043079 -32.7347984  -2.0235791
  28.5220470 -33.1462822  -2.4016180  29.3738995 -31.8936520  -2.5867798
 -16.5681839 -43.9813423  19.7927456 -16.3136501 -43.8700562  20.7719040
 -15.9912062 -43.2339859  19.4773750 -33.6523476  -5.8102179  -2.0121281
 -34.3282890  -6.1293321  -1.3516189 -34.2194023  -5.4591513  -2.7528219
  32.7153778  27.1919613  16.2098541  32.6198158  26.2899132  15.8175907
  33.1822739  27.6602325  15.5214195  42.5259743   7.5548267  23.6969013
  42.9060478   7.2962322  22.8354149  42.8107529   8.4534292  23.7946205
  20.9309196 -37.0374527   6.1079359  20.1835537 -36.6676788   6.7120838
  21.3628044 -37.6312370   6.7468648 -11.3617926   1.8089154  34.0753403
 -10.5656290   1.3170764  33.9195671 -12.0274620   1.0984671  33.9586334
   6.9593277  14.6665792  -9.3100319   6.7712655  15.4740191  -9.8374186
   6.1149597  14.3974981  -8.9795637  22.9134808  27.3559990  11.0622253
  22.0661335  27.5409126  11.5065269  22.9485207  28.0660973  10.3443356
  -6.0983639 -37.9656792 -11.7482719  -6.9007792 -38.4295273 -11.4783525
  -6.3335910 -37.8188438 -12.7083654 -22.8878193 -42.1975174   8.5422468
 -23.1835022 -42.5150833   9.4123325 -22.9205742 -41.2307434   8.5874405
  -8.7542200  11.3938360  -4.7311864  -9.0219288  10.6090050  -5.3159165
  -7.9653497  11.6241131  -5.2758098  21.3715229  13.7657967 -21.2965889
  21.5003281  13.0416965 -20.7044601  21.7348385  14.5283794 -20.7950134
  35.1058235 -27.5779381  -8.9613285  34.6783981 -28.3898048  -8.7515612
  34.5293846 -27.2752666  -9.7206669  17.7949467  20.3954964 -30.1454697
  17.9576759  19.5082703 -29.8353920  17.0681820  20.6635036 -29.4737511
  -3.9344559  33.0234718  10.0362711  -4.0576878  32.1125145   9.6286421
  -4.3098454  32.7870483  10.8886251   4.5681105  34.0139427  -3.8101552
   5.4902139  34.3761063  -3.9521101   4.0805392  34.8472519  -3.7702224
 -14.9928799  -0.9583319  31.2230549 -15.2547340  -1.7976785  30.8188210
 -15.9363823  -0.5758477  31.3608932  30.8048458   7.5542426  17.7587471
  30.4967880   7.2005868  18.5678921  31.7344208   7.6976318  17.8988018
  29.5381336 -24.7479286  28.5766010  29.8102226 -25.4009609  29.2124310
  30.2589493 -24.8888912  27.8835106  16.7554989 -24.4664192  37.9854736
  17.1638012 -25.3070793  38.3163109  15.8511286 -24.5140648  38.4666519
  24.6253452   4.0567880   0.3657033  24.9000168   4.0412531  -0.5635175
  25.2859783   3.4347019   0.7445132  41.7772903   1.9822627  13.8317795
  41.3790703   2.9020016  13.6116085  42.1230202   2.2181120  14.7434616
  -4.8750205  27.2567883 -24.0929756  -5.3101954  26.5564060 -24.6277466
  -4.6088524  26.7156162 -23.2980480  27.2057838 -19.7030983  13.5125780
  27.1192398 -20.6710224  13.2931747  28.1631088 -19.6770859  13.7246618
 -19.3251114 -43.6637268  20.2217731 -18.5377159 -44.0387535  19.7795658
 -19.1907425 -42.6941299  20.0476303  29.4058819  -4.8544855  19.0009212
  29.2980671  -5.8098702  18.7407265  30.1663933  -5.0331597  19.6669731
 -22.8714600  20.3926620  18.4969044 -22.6222134  20.5401287  19.4517841
 -22.8203697  19.4211750  18.4584160  -4.8159866 -47.8797264 -18.8275108
  -4.9162097 -48.4841843 -18.0795097  -5.7529998 -47.6622200 -19.0036354
  19.4232464 -22.2978878  -8.3369846  20.1170349 -21.6532040  -8.6678696
  18.6224766 -21.7669125  -8.4930077   4.0638313 -24.8010960 -14.1206694
   3.4287670 -25.0395470 -13.4766150   4.7192879 -25.5145645 -13.8891163
  42.8884087   3.4094453  -9.8750648  42.3379631   4.1821761  -9.6409492
  43.6940880   3.6324184  -9.3940678  37.3459549 -28.4887066  22.9075832
  38.0300560 -28.4031315  22.2609596  37.6299286 -27.7765770  23.5642242
   8.2338467  17.6276016   3.0697744   8.2322941  16.6996002   2.6351438
   7.4291182  17.5428772   3.6136494 -20.4160004  34.3338966 -24.5991192
 -20.8306942  34.6819191 -23.8018703 -20.0421696  35.1352921 -24.9975452
  21.1949501 -33.3502274 -19.9875736  21.8804684 -33.5168114 -19.3011131
  20.4131470 -33.3739815 -19.4166412  -8.5524225   5.6964970 -19.9080830
  -9.2496834   5.1204309 -20.3279972  -8.0339499   5.8742270 -20.7767773
 -17.0358696  -1.5303075 -30.6987591 -17.0951729  -1.0912697 -29.7561111
 -16.0427437  -1.6928077 -30.5919609  20.7758999  46.6394196  13.0470648
  21.0058670  47.0583801  13.9512634  21.1351852  45.8072166  13.1817579
  14.8873730 -27.6000900  18.6832600  15.3792448 -28.4402084  18.5939579
  15.3669233 -27.2105255  19.4717064 -11.0825815 -15.4272509   6.7175832
 -10.4942875 -15.6140432   7.4558020 -11.3218689 -16.3037395   6.4386649
  29.6892319 -22.3363457  12.8175516  30.3754883 -21.9350204  13.4306850
  28.8872490 -22.2288494  13.3461971  34.3626251  -2.1892505   6.6143475
  34.3787613  -3.1582992   6.4362516  35.3240623  -2.0438585   6.5626969
   9.5840921  50.0982552 -16.6701660  10.3786135  50.6759262 -16.3694725
   9.5444603  50.3611145 -17.6211586  -3.4831603  36.2143059 -13.8684244
  -3.4091628  37.1088867 -13.4444771  -2.8940985  35.7370758 -13.2275686
  -9.1306362   7.8442583  34.2667542  -9.4635191   8.7859182  34.0845451
  -9.0845881   7.5948873  33.3432198   1.1287146  31.6610813  -8.6605959
   0.8060626  31.1296616  -7.9014430   1.3163562  32.4933472  -8.2768869
  11.9814987   1.6006305  34.2757416  12.4772615   2.0160403  34.9570122
  11.7921820   2.3315840  33.7025452  33.3662834  27.5549068  22.5274887
  33.1854820  27.2144146  21.6401253  34.0464096  28.2095184  22.4465046
 -34.2647171  33.4186363  -9.4465532 -33.4698906  33.5590591  -8.9192896
 -34.8205757  34.2012291  -9.1625395   8.2663746  42.7556000  11.9576073
   7.4632454  42.3560791  11.6058588   8.9589672  42.1918144  11.6540689
   4.1933908  13.2710438  39.5065231   4.6857772  13.4246893  38.6085243
   3.3483422  13.6475773  39.3046989 -20.9403744  -2.2646952  19.4873257
 -21.0855942  -2.7439003  18.6093063 -19.9927826  -2.0557547  19.3419285
  33.7444305  -6.1318989  28.5575886  34.0628052  -6.8809428  27.9865494
  34.6377602  -5.9626999  29.0050926  12.2619257 -14.2591038 -11.6145363
  12.0007629 -14.3756704 -12.5925198  13.2261953 -14.1334352 -11.7176208
   5.5868912  -1.4102263  51.6857567   4.6701055  -1.1688696  51.9611893
   5.6452441  -0.7987489  50.9028969  -0.6836308   8.1877489 -33.3434448
  -0.4706351   7.6276217 -32.6003723  -1.5987674   8.4468918 -33.0744591
  27.3288555 -18.7362003  19.6714611  26.4577847 -18.7567959  19.4572964
  27.8218136 -18.8351402  18.8425503  21.2368622 -25.9155140  34.2266655
  21.1607761 -26.3573093  33.3566322  21.3900414 -26.6599274  34.8345413
 -10.6971455 -35.5559006  12.3574038 -11.6429014 -35.5544891  12.6140146
 -10.4625683 -36.5065041  12.5061169 -15.7760458 -24.4060974 -12.4424238
 -15.3974867 -23.5702324 -12.1231422 -16.3365593 -24.7022114 -11.6814480
   8.6643496  16.8878269  -6.3282194   8.6470718  16.6863918  -7.2741909
   7.8680983  16.4590797  -6.0386114  30.8679504  -8.0134392  -3.9850247
  30.6370544  -8.9207382  -3.8104708  30.9048100  -8.0257854  -4.9971805
  19.3078709 -11.1644945 -47.9626122  19.3950901 -10.7896252 -47.0470123
  18.5795193 -11.7885056 -47.7962341 -15.4785070 -18.1665096 -35.3773766
 -15.6252432 -17.6381855 -34.5883865 -15.0380478 -17.4581642 -35.9293365
 -11.9527082  -9.7031641 -24.1666870 -11.6888762  -8.7846003 -24.1701126
 -11.2905779 -10.0627108 -24.8453445  18.0225487  -5.9631567 -16.1234474
  17.4369545  -5.8659344 -16.8343811  17.4384594  -6.0504785 -15.3492374
   3.9242551  30.8517361  27.1668415   3.7467194  31.4488029  27.8773518
   4.7534628  31.3295956  26.7499142  26.0506821 -15.8420134  10.1380348
  26.6211395 -16.1516399  10.8578787  25.5607567 -16.7248039   9.9501085
 -27.9917946   7.8932438  21.9664135 -27.8675747   8.7753048  21.5167160
 -27.5925503   8.1322680  22.8014488 -35.6325455 -22.5924358 -20.3781700
 -35.2373581 -22.5835247 -21.2732525 -35.5858841 -21.6418705 -20.1658573
   6.6729217  21.1175423  38.6014519   6.5204606  20.5162201  37.8293877
   6.3286686  21.9737968  38.1438866 -41.8801727  -1.1101608  -8.4063292
 -42.7935257  -1.3431079  -8.6455393 -42.0573769  -0.3732609  -7.8127913
 -23.0685158  -6.2112575  12.0739183 -23.1871223  -6.2705617  11.1045361
 -23.1932144  -7.1720161  12.2645206 -36.8768463  11.6930485  -8.1289434
 -37.2859306  11.4763269  -9.0254669 -37.6577568  11.5815401  -7.5607681
  42.2932777  27.1136875  19.9372253  41.8598213  27.8025951  19.3881817
  41.6331711  26.3899040  19.7199383  -0.9290251  25.7968578  -5.8898106
  -0.2386973  26.3645897  -6.3612428  -1.4295492  26.4987030  -5.4267569
  16.2394295 -27.0095654  21.1661415  16.5702324 -26.3948612  21.8433208
  16.9236069 -27.7441902  21.2722511  37.3979683 -25.3012676 -20.5007763
  37.6055260 -24.3818626 -20.3274803  36.4878769 -25.2155075 -20.8522892
  14.9937105   3.5419247  18.2346706  15.2205124   2.6474941  17.8199825
  14.0515137   3.6109018  17.9628677 -14.1442671  -4.9984126 -13.3882227
 -14.9202108  -5.1170359 -12.8744898 -13.4964905  -4.6082320 -12.7312565
 -30.8779373 -16.4920654  23.8303261 -30.1471272 -16.0757961  23.3654537
 -30.4432774 -16.7016182  24.6802063 -28.6309166  23.4796543  17.8525581
 -27.8616638  23.2549877  18.4806156 -29.3866787  23.3754768  18.4270287
  -8.9722795 -44.1094170   7.2955122  -8.9080477 -43.1072922   7.4490829
  -8.5761480 -44.4203873   8.1058140   0.0138846 -13.2123699  43.3401604
  -0.7029980 -13.9223337  43.3222237  -0.0599708 -12.9522486  42.3591881
 -25.7364292  18.0183792 -15.6343594 -26.0587082  18.1769352 -16.5635853
 -26.1848011  17.1334286 -15.4200144 -35.1844292  25.6805534  19.1838970
 -34.3043747  26.2053795  19.1345406 -35.4729309  25.9217873  18.2760143
  25.0384274 -13.2097054 -12.1872549  24.8538952 -12.5533171 -12.8220654
  25.1118145 -14.0208235 -12.7013302  22.1472931  25.5008698   1.5322542
  22.3941040  25.5539951   2.4583170  21.8217125  24.6378384   1.4658175
 -12.0114212  -1.0080659  42.7053947 -11.1902428  -0.4145899  42.6080742
 -12.6124907  -0.3462830  42.2474060   2.5352385  35.1436195 -24.6328526
   2.2499766  34.7274323 -23.7799091   2.4140291  34.4646034 -25.2893620
 -11.7693024  35.1964226 -12.6539288 -11.6273203  35.2851639 -11.6985083
 -11.0741901  34.6359367 -12.9175968 -39.1103973  14.6477013 -20.1652527
 -38.9636230  14.2878256 -19.2597980 -39.3212700  13.8775301 -20.6658497
 -19.4192047 -16.2780895  -4.8068805 -20.1184692 -16.5773430  -5.4493403
 -19.7940121 -16.6677036  -3.9356353  11.2454758  28.3032684 -12.5596886
  10.6593857  27.5816994 -12.5777025  10.6898613  28.9966068 -12.2040768
 -13.9342012  26.1714783   4.2566776 -14.3829832  25.9682274   5.1429124
 -14.6588154  25.7196560   3.7065492  -3.5431247 -16.4755192 -16.4315166
  -4.4274664 -15.9985533 -16.4763470  -3.5779188 -16.9129944 -17.3371105
  17.6794186  37.5060120  12.0924559  18.0115414  38.3233109  12.4946613
  16.9431686  37.7327080  11.5054007   8.4747019 -25.6373653  34.5949631
   9.0871572 -26.0226631  33.9336853   8.5897341 -24.6585159  34.4969902
 -35.5915146  31.4660225   2.6789436 -36.1964340  30.8317451   2.2670171
 -35.0213394  31.7177792   1.9053969  25.0513630 -18.6386814 -10.1432524
  24.7930260 -19.5956459 -10.2304182  24.7187920 -18.4413357  -9.2194881
  -1.7039905  20.6716785 -32.2853813  -2.1109426  20.0723495 -32.9561958
  -1.2547003  19.9666309 -31.7488060 -21.7038460 -13.8665237 -32.9266243
 -21.1586628 -14.5943384 -32.5135193 -22.1468220 -13.5524750 -32.0897217
   4.7511668 -14.5013161  10.8835850   5.2516694 -14.5719576  11.7593870
   3.8405759 -14.5381966  11.2613869  24.6779575 -28.7285213   1.7240132
  25.4175434 -28.2753487   1.2650697  24.1808243 -27.9902344   2.0790598
 -35.2750549   9.2188511  33.1293030 -34.7974739   8.9178534  33.9391518
 -34.5757637   8.9889650  32.4371719  -8.7770548  22.4110565 -40.1305275
  -8.6292686  22.3897381 -39.1938553  -9.7118864  22.6469383 -40.2352676
   8.3838367  21.1414509   2.8029630   7.7194872  21.5758495   2.2239838
   9.0559578  21.8489513   2.8379335  18.8706627 -15.7457991 -21.9826145
  19.2887764 -16.6089554 -22.2405777  19.6243305 -15.2603636 -21.7012024
  -8.9635439 -11.9631329 -33.1192398  -9.3050165 -11.4691458 -32.3739281
  -9.2269716 -11.3614674 -33.8073349  -2.8183398 -13.6602163   7.7720895
  -2.3438623 -14.3235350   7.2697077  -3.0941691 -13.0466270   7.0531306
  41.6980057  -9.6273746  10.1830940  41.0490875  -9.0805864  10.6199036
  42.2634163  -9.9602032  10.8552990  -3.1191113 -44.3369179 -14.4623337
  -3.5621397 -44.4399643 -13.5707016  -2.9547544 -45.2678947 -14.6094866
 -26.5731106 -14.3845167  -8.9535532 -25.6039753 -14.5189114  -8.9639893
 -26.7756119 -14.7033291  -8.0686159 -43.6092110  -8.0228558 -27.8052082
 -44.5531807  -7.9766927 -27.8376904 -43.4553413  -7.1559439 -27.3333778
  28.6171913  13.3237534 -31.3515148  28.8731709  12.9438181 -32.1985283
  29.3991661  13.0944443 -30.8206902  -3.9775534 -20.6288853  34.9931908
  -4.4290819 -21.0446701  35.8072433  -4.2503891 -19.6796532  35.1471901
  25.5655422 -25.1134605  35.6726189  26.4221439 -25.3314667  35.2835999
  25.8584175 -24.2717590  36.1590309  23.3697701  -3.1231503 -27.4063148
  22.6626263  -3.7101650 -27.6833916  23.2019253  -2.3201022 -27.8643036
  12.4463444 -42.6006927 -14.4925175  11.5521631 -42.8449669 -14.1386137
  12.4106817 -43.0095329 -15.3439417  24.2010937  25.6857681 -23.8363323
  23.9877605  24.7322674 -23.8491917  24.5683632  25.7024307 -22.9143200
  -6.2400293  30.8805141 -27.5528870  -6.6254325  30.1088276 -27.2411690
  -6.9424272  31.5587368 -27.3226719  -5.3178825   2.8789310  33.1753464
  -4.7924972   2.0675812  32.9416733  -6.0648732   2.3934557  33.5538673
 -24.8507042  13.5108757  41.3078957 -23.8954468  13.6894875  41.4671059
 -25.1620369  14.3635864  41.8092308  12.7491999 -12.8655586  49.9245224
  12.0986357 -13.4501705  49.4177475  12.4350004 -12.0221786  49.7856102
 -10.6101294  31.9387226  -8.2012529 -10.9472122  31.8518200  -9.1570272
  -9.6618452  31.8566494  -8.3752174  11.3096619 -17.7029171 -14.6379414
  10.9031868 -17.6837559 -13.7748537  12.2701092 -17.7619152 -14.3857498
 -10.9511642  -3.1933649  -9.6558704 -10.2516489  -2.7543280  -9.0834560
 -10.4073734  -4.0535054  -9.7580481 -11.1388826 -33.2062035  22.5879173
 -11.6140194 -33.1933784  23.4459705 -11.6572762 -32.4614677  22.1589146
  32.3375664 -18.1059265   7.5513272  32.0323410 -17.3763542   8.1925545
  31.7068710 -17.8774700   6.8471375  22.3419380 -32.1944199  21.1861210
  22.5026226 -32.2013779  20.1850510  21.4494839 -32.6148491  21.1369095
 -22.9846954 -12.1052208  11.0209475 -22.2217731 -11.9438229  10.4672689
 -22.7331810 -11.5903769  11.8820333  -3.1628969   6.2641420 -28.5395489
  -3.1905737   6.0382452 -27.6193085  -3.8630495   6.9917879 -28.6366272
  -3.7133543  43.4896240  20.9688282  -3.1782486  42.6905289  20.9722271
  -3.9307728  43.6045876  21.8952808  23.9124908 -24.2335854 -22.7114143
  23.6933670 -25.0831795 -22.3872223  23.0396023 -23.7881794 -22.8614635
  42.8284492   2.9760847  -2.8322814  41.9376907   3.0112624  -2.5114131
  43.2838821   3.2875245  -1.9750307  -2.8661883  42.7242661 -10.0524750
  -3.4725862  41.9413605  -9.8789396  -2.0816810  42.3702164  -9.6073494
   7.3715849 -43.6744003  19.6028843   6.5968428 -43.9572830  20.1119213
   7.2254047 -42.6947136  19.6864338 -41.0172462  15.1070786   1.1272985
 -40.2153778  15.6876745   1.0062287 -41.7325821  15.7436562   1.1329508
 -27.8317528 -13.0192204 -30.0340118 -28.8049965 -12.8025331 -30.1676559
 -27.5240345 -12.1256266 -29.7662773  -1.7825464 -14.9446030 -19.7059650
  -2.4414535 -15.6106806 -19.5769157  -2.3170807 -14.2572823 -20.1914349
 -11.1935482 -42.1477470  12.3415194 -11.4662905 -42.7379150  13.1646252
 -10.6131191 -41.5817146  12.9408588  -5.8827014  32.0751457 -37.6127243
  -5.2181773  31.7090797 -38.2178917  -5.6086464  31.5782642 -36.7698898
 -11.6445866  36.1741219   6.0805502 -12.0005560  36.8816147   6.6952553
 -12.4245911  35.8795738   5.6225247  42.1570129 -29.1216717   4.9050670
  43.0796051 -28.7430973   5.0026655  41.9443665 -29.3636265   5.8246274
 -17.2729435  -9.9889841 -11.4438734 -16.9605274 -10.7408390 -12.0835752
 -16.6221333  -9.3313904 -11.7848721   7.5894685  -9.6082029  39.3907166
   7.0902143  -8.6981506  39.4470291   7.8857565  -9.5064001  38.4377289
 -22.4349308  21.3203945   5.8304405 -22.9546394  20.8512497   5.1364026
 -22.1667595  22.1210785   5.3807240   7.7308702 -24.6873055  -0.5930472
   8.1088562 -24.2288551  -1.3647823   7.0980024 -25.2908478  -1.1239513
 -11.1173372  23.0529976  23.2791634 -10.8000011  23.3515263  24.1947975
 -11.2375011  23.9428463  22.8649979 -24.0399590 -28.4244308   1.0330087
 -24.5926514 -28.8458462   1.7719463 -23.1448593 -28.4152069   1.4105368
 -12.9072828 -30.7138977   7.9841628 -12.2781696 -31.4043999   8.2127333
 -12.4183531 -29.9131489   8.3631859   6.7418437  27.9931927  29.9022560
   5.8310633  27.7041016  29.5504189   6.9153934  28.6281662  29.1788349
  18.5494537  -5.1623187 -25.8017311  17.6432476  -5.4492216 -25.9623718
  18.9486237  -5.8775458 -25.2777882  21.8630581  -4.6189675  43.0246124
  22.8343449  -4.5096040  42.7287025  21.5133190  -4.0125780  42.3326111
 -37.1037445 -19.2273483  -5.7640619 -36.1839905 -19.5443192  -5.9911094
 -36.8949776 -18.2325344  -5.7706614  14.1283741  -0.6973984  16.6429348
  15.1064177  -0.9523345  16.4451618  13.7139025  -1.5614558  16.5177231
  14.3394289  -1.4354150 -25.4049854  13.7507582  -0.6662341 -25.4973392
  15.0487938  -1.0354992 -24.9068031 -16.3252335  14.4452820 -41.0427055
 -15.5366478  14.9655085 -40.9206238 -16.9633694  14.9580545 -40.4959641
   8.1051178  11.5458174  21.5068150   7.8511844  10.5907030  21.3848419
   9.0754681  11.3752737  21.6020603 -13.2799606   0.8183916  30.4273071
 -13.6919374   1.6092391  30.8135414 -13.9192438   0.1511572  30.7227478
  31.1204262  -1.5467767  22.1720467  30.2473984  -1.7112895  22.6639881
  30.9768105  -2.0998378  21.4096470 -24.0791836  21.7098274 -37.8428040
 -24.1955147  22.3037491 -38.5939445 -24.4299583  20.8828239 -38.1322899
   6.3559508 -27.4456673 -40.0659370   6.2116489 -28.4113712 -40.1156006
   5.4435444 -27.1004124 -40.1512527  40.5507355 -24.1910267  22.8993740
  40.7002869 -23.9540367  23.8347721  39.6130486 -24.1260757  22.8358860
 -26.4391518  34.0368576 -12.5293808 -27.1964073  33.3917122 -12.2596989
 -26.9489479  34.8256493 -12.2887840 -29.5932808  33.6984062   8.1645594
 -30.4006443  33.4110222   8.5806837 -29.3167973  34.4398880   8.6750441
  22.0398827  -9.5407095   1.0585413  21.1735420  -9.9842253   1.3459685
  22.6355877 -10.3134785   1.2416899  30.3942909 -23.4348564   8.7891350
  29.4452057 -23.3531418   9.0325785  30.6511822 -24.2041264   9.3646631
  44.4909363 -12.1173906 -18.0304165  43.8361740 -12.8222790 -17.9354305
  44.1026917 -11.5799494 -18.6878033   6.1816845  -2.1852999  -9.0754833
   6.4333272  -3.0788105  -9.4178658   6.8808150  -2.0858355  -8.4017067
 -30.5260525  -4.9264736  -4.7328954 -30.9629612  -4.5097461  -5.4869456
 -30.0862885  -4.2420115  -4.2462993  27.5609608  -8.1570349   5.4408221
  27.7055931  -7.3208904   4.8806996  27.1707439  -7.7335830   6.1994948
 -26.7242908  -2.2903752 -36.5574799 -26.6974773  -1.3977461 -36.8822670
 -25.8566608  -2.5366442 -36.3145065  25.6960754  23.0591602 -21.6307011
  26.0926857  22.3701763 -21.1041965  25.3198662  23.5563908 -20.8231506
   0.6498642 -17.3098869 -39.4752235   0.1484962 -16.5733395 -39.1221924
   1.4513727 -17.1621361 -38.9806328 -15.0607300  39.0926781 -33.8439026
 -15.6514921  38.8465195 -34.5277672 -15.6550856  39.3952980 -33.1380043
 -24.6079903   8.0042315 -34.0927963 -24.0685558   8.0850353 -34.9294968
 -23.8807487   8.2067814 -33.4524155   8.1524019 -12.1464176  36.5283432
   7.4615350 -11.5789318  36.1475334   7.5926423 -12.9753389  36.8202019
 -23.3398991 -10.2249403   5.7583480 -22.8785229  -9.4244280   5.3998828
 -24.1560116 -10.2283583   5.1704941  11.5352612  -3.3315463  40.8618050
  11.4845695  -2.3249838  40.7139893  11.1313276  -3.5818639  39.9536781
 -23.4435902  12.7878942  19.9093323 -23.3133450  12.6967974  18.9547939
 -24.4504929  13.0326614  19.9127712   4.6400156  22.8591080  -8.1318636
   4.5286446  21.9763718  -7.6697421   5.6062531  22.9153500  -8.2911501
   4.6105857 -19.5966835  35.4388428   4.4675183 -20.1919632  34.6707077
   4.9732509 -18.8081779  34.9929047  43.9049110  -1.1898825 -28.0554523
  44.4845657  -0.6261713 -28.5210323  43.1608009  -1.2323933 -28.6468353
 -25.9219475  36.0485802  22.4147549 -25.0061855  35.8636360  22.6743469
 -26.3432102  36.0666504  23.3475780 -33.1707878   0.2075947   3.9246662
 -34.0483856  -0.1167030   4.0838933 -33.4244423   1.0150206   3.4328346
 -12.0676270  25.9131470  37.9251480 -12.5965233  26.2879848  37.2355080
 -11.1593809  26.0118046  37.6065025  -4.6370139 -41.6891708  13.6719475
  -3.8417597 -42.2466850  13.8139505  -4.1883359 -40.8774605  13.3155346
  30.3543282   4.5389795 -34.1626663  30.4961357   5.3011971 -34.8236885
  29.4377518   4.2848101 -34.4083443  30.1818638 -20.0328693  17.0044785
  30.6327820 -20.3910942  17.8439407  29.2396374 -20.1453590  17.2554340
   9.8347902 -11.3090544 -16.7441597  10.4435043 -11.5463905 -17.4895859
   9.1783476 -10.7976074 -17.2884083  34.7639809  17.5905800  -3.4984627
  34.0110741  17.8632259  -2.8867979  34.5844994  18.2444572  -4.2325411
  12.2759781  37.1806183 -24.0241909  11.6501999  37.5882950 -24.6607094
  12.8429556  37.9532394 -23.9158230   9.5931282  33.5893402 -16.1355228
  10.1922235  33.0409088 -16.7107754   9.9930677  34.4578781 -16.3207932
   0.4794755  21.7518463  29.3993301   0.6217884  21.7912731  28.4781551
   1.3647509  21.6657085  29.7582226  -9.1100264  36.4048996  23.5670776
  -9.9787483  35.9855042  23.8987675  -9.1871328  37.2093964  24.0967560
   6.3735228 -14.8821421   5.1708074   5.7882390 -14.9375029   4.4058709
   7.2073402 -14.5960455   4.7826066  13.4480467  -7.5928226  25.5083160
  14.1478271  -8.1558628  26.0170021  13.3746262  -8.1607094  24.7379436
  22.0696564  19.4897556 -33.5541458  22.9711533  19.4162502 -33.1948204
  22.1275959  19.1252861 -34.4082527   0.7895905  35.9774055   8.7115507
   0.4879698  35.5396156   9.5440187   1.1063387  36.8457718   9.1010904
  -8.3187447 -37.7255020  -5.7645226  -7.8640389 -37.8155365  -4.8975363
  -8.8157434 -36.8529129  -5.5615692  -1.3425106  19.8282433 -15.4871988
  -1.5697887  19.6259537 -16.3849850  -0.5827321  20.4483738 -15.5953264
  -6.5793042  17.6251507 -30.7826042  -6.6835279  16.9488754 -31.4479790
  -5.6647058  17.4572887 -30.5104370  -2.5223815  -1.6838344  51.1143341
  -1.9198340  -1.8147930  50.3344460  -1.8706937  -1.2705580  51.7513771
  35.8079414  22.4416332  22.4850979  35.3833427  22.2127666  23.3475876
  36.1034775  21.5473366  22.1684742 -16.8759403   7.5111175  22.7718258
 -16.7376633   7.0714798  21.9159031 -15.9132023   7.4106889  23.1106205
 -35.0488548  -4.0201640 -19.4715118 -34.5374794  -3.3947845 -19.9265099
 -35.8101311  -3.5574651 -19.1399021 -26.5746727   4.5649433 -39.7740364
 -26.4518986   5.5268126 -39.7074776 -27.3217449   4.5199509 -40.3996201
 -20.1826801   6.2770867  13.3811569 -20.8890991   6.7401428  12.8319635
 -20.4606438   5.3482976  13.1994429 -26.3374691 -14.2869387  19.3026962
 -25.4624825 -14.1008606  19.7035389 -26.7693481 -13.4506330  19.2757092
 -22.2700157   2.9844415   5.4500256 -21.7467880   3.2014818   4.6692834
 -21.5998096   3.1114709   6.1359529  -8.0441065 -23.7646389 -27.3421116
  -7.1041617 -23.6207733 -27.5843811  -8.0930061 -23.3586559 -26.4881058
  14.3391619  10.9178257  -4.0957875  14.3455696  10.2094936  -3.4001632
  14.8273230  11.6487961  -3.5843291  -0.4116717 -24.4347610  30.6312237
   0.0285985 -24.8784885  31.4022427  -0.5908151 -25.2007828  30.0389595
  13.8000460 -23.8642349 -40.0035591  14.2256317 -24.7138271 -40.3048134
  13.2892647 -24.1840916 -39.1908264  13.6715670 -17.5449276 -25.4416847
  13.7107191 -17.1781025 -26.3544464  12.7590523 -17.2893810 -25.1932964
  11.6356611   9.1483860  26.7216339  12.4359646   8.6931610  26.4213390
  11.8748693   9.4803534  27.5923252  -3.3880825 -38.5046997   7.3738494
  -3.5061672 -37.5316582   7.2645154  -4.2682443 -38.8573723   7.3419571
 -13.5139551  16.8423805 -15.2683172 -13.6794939  16.5778008 -14.3461685
 -13.1575308  16.0289745 -15.6669416  14.6570063  16.7703686  24.2949810
  14.0255623  17.3960285  23.9965858  15.5141268  17.1874886  24.2538490
  10.4624166 -40.3070412  12.7238426  11.0530529 -40.8017845  12.1799459
   9.6325064 -40.3542633  12.2155609   5.5635238  38.5672531   1.5317482
   5.1786990  38.6300926   0.6394895   4.8233495  38.4476128   2.1161804
  24.8237133  19.0441399   2.9984922  25.0799179  18.8064194   3.9550452
  24.5580311  19.9409809   3.1272526 -18.6529770  30.2902832   6.2549901
 -18.2918987  31.2039528   6.1330495 -17.9553528  29.7877254   5.8008766
 -20.3818340   5.9462748  -7.5037808 -21.3075371   6.2432532  -7.6068006
 -20.5100784   5.0756340  -7.1516986   9.1031456 -13.5558205 -35.2348709
   9.8349943 -13.9281569 -34.7573967   9.0091438 -12.6748037 -34.8015327
   7.6115651  -2.8162038 -44.9574509   8.1334515  -2.1964962 -44.4708519
   6.7233305  -2.7141585 -44.4955826  34.8820114 -14.6078129  14.8942556
  34.2850342 -15.2042675  15.4218397  35.1967201 -13.9648209  15.5397396
   0.7259149   5.5079527 -34.3698921   1.1560646   6.0407629 -35.0432129
   0.7814223   4.6588960 -34.8236580  22.3939457 -18.2717209  37.5481224
  22.9283333 -17.6113415  38.0455475  21.7334175 -17.6923656  37.1223679
  -0.7876548 -23.6162319  26.6667824   0.0677557 -23.9393444  26.8215313
  -1.3404543 -24.4060535  26.5148640  -9.8852072 -11.5227995   6.3343897
 -10.4006853 -10.7958298   5.8946819  -9.0666990 -11.4969196   5.8811784
 -17.7434559   8.1878214  43.0814934 -18.5195255   8.6582708  43.3581352
 -17.0753937   8.8705912  42.9967499 -20.6062851 -45.9678802   4.5673890
 -21.0937290 -45.5058250   3.7763426 -20.8863335 -46.8757401   4.3249655
 -12.9345226   1.5317501  -0.4769074 -12.6498432   2.3252912  -0.9542814
 -12.0881653   1.0085285  -0.4514998  26.7686615  39.7005539  16.5436287
  26.3809490  38.9243965  16.1393337  27.0132351  40.1915131  15.7411652
 -34.8166695 -21.7204742   0.5393901 -35.7474861 -21.9917316   0.5781013
 -34.6467743 -21.9293900  -0.3944147 -11.4323397 -14.4223413  31.0291843
 -12.1578169 -14.4718914  30.3734989 -10.7282085 -14.8137741  30.4637394
  16.6724777  -2.5480227 -41.3108711  15.8576574  -2.0529237 -41.2224274
  17.2818203  -1.8479687 -41.6812859  -1.9745800 -41.4838524  14.3359385
  -1.6430976 -42.3678284  14.1941309  -1.1047794 -40.9968300  14.2364788
   8.3544073 -22.8762627 -21.0427628   9.2824669 -22.8836613 -21.4169426
   7.8810649 -22.4018841 -21.7788734 -23.6937237 -45.4583092   1.4805393
 -24.6713772 -45.6307755   1.6599594 -23.7511292 -45.1870651   0.5750306
  -6.7876329   2.1543815 -23.6640930  -6.4114599   3.0000479 -23.5049839
  -6.2981968   1.9521130 -24.5392685   9.4194450  29.9758453  29.0532131
   9.1768799  29.3775444  28.3187084  10.1559792  29.5283947  29.4585819
 -15.3615189   7.0241847 -26.1487885 -14.4079199   7.2600021 -26.0091724
 -15.4814377   7.2319145 -27.0647373 -33.4261589  14.7024212 -33.4649353
 -33.8664551  15.5294380 -33.5049858 -32.7612648  14.8003302 -32.7454453
  -6.2483187 -27.8407555 -15.1872187  -6.7477975 -27.3088055 -15.8331270
  -5.3876534 -27.4144821 -15.1599083  -1.6791959 -33.7749748  -2.2863965
  -1.1172328 -34.2811470  -1.7100861  -0.9755426 -33.5450935  -2.9637454
 -12.2365923  -3.4185998  -1.4260079 -12.7133369  -4.1488962  -1.7567409
 -12.7507677  -3.1772161  -0.6051900  25.8800926  10.4764786 -12.4352474
  25.2149506   9.7050161 -12.5715885  26.5422916  10.3285942 -13.1224804
 -26.8278770   5.2119479  21.7029819 -26.9658546   5.2363763  22.6904469
 -27.3985081   5.9164634  21.3706970  29.0166111  23.3614006  -9.3400640
  28.2187042  23.1463509  -8.8455448  29.1796722  22.5819054  -9.8640261
  18.7847137 -34.4642944  24.4041824  18.3628330 -35.2016945  24.8708954
  18.1640987 -34.2261200  23.7169914  20.6088409   9.4390230  -1.0818267
  21.0944443  10.1172638  -1.5096220  19.8629341   9.2930279  -1.6972774
  24.4246693 -14.8962173  -1.1605181  25.1031990 -15.5561380  -1.3253080
  24.1157093 -14.6707296  -2.1090455 -16.8617611  17.4536839 -47.3911667
 -16.5892334  16.5212059 -47.0992928 -17.3109512  17.6710548 -46.5036278
 -30.3066940  -7.9938540  20.3996582 -29.4278717  -7.7387352  20.0364895
 -30.7884998  -8.1391058  19.5740242 -25.7338829  31.2518444 -29.3607635
 -25.8013191  30.3401451 -29.0404453 -24.7852211  31.4297714 -29.3992634
 -26.8078709   2.8442988  -9.8678560 -27.2519207   2.1938977 -10.4828291
 -26.1594982   3.2050352 -10.4936762 -34.7177925  21.2687397  31.5901947
 -33.9299469  21.2964611  32.1790237 -34.2902412  21.5112019  30.7080326
   5.0268784  22.9356041  37.5459595   4.5392361  23.2520485  36.7775650
   4.4507484  23.1911182  38.3085823  13.2764540  51.0961037  -8.2233257
  13.3311176  50.3586884  -7.5786767  14.2003498  51.5338936  -8.1599674
 -15.2703381  27.6142159  36.6696968 -15.8392143  28.2766743  37.1581230
 -14.4143534  28.1251488  36.8112259  15.1143799 -14.2466536  44.0404587
  14.2687254 -14.5910673  44.3785095  15.5961943 -15.0249300  43.7834206
 -37.2605057 -27.9539528 -10.8365526 -36.4993439 -28.4469719 -10.7382736
 -36.9643097 -27.1800079 -11.3134966 -27.4500751   5.3730102  24.3559647
 -26.8368816   4.6538167  24.4066410 -27.0807171   5.9742837  25.0177784
 -22.3813477  -0.9002860 -23.6943588 -22.7715111  -0.1588658 -23.1505432
 -22.2726727  -0.4017967 -24.5287285  22.7983265 -23.9447079  35.0304718
  22.2304306 -24.6301556  34.6285553  23.3835678 -24.5301533  35.5909271
  -7.4224219 -35.9515419   6.3519173  -7.1603808 -36.1509132   7.2595830
  -7.5182929 -36.8505516   6.0162063 -22.6321297   7.0943742  -8.0713997
 -23.5338058   7.0970030  -7.7855206 -22.2697716   7.9497032  -7.8350716
  28.5214252  -4.8276057 -41.2852898  28.1355209  -5.4673924 -40.6256447
  27.8093052  -4.8272395 -41.9545555 -17.8141308 -13.4346123  12.1939449
 -17.9788208 -13.8031168  13.0974340 -17.7829857 -14.2762318  11.7232094
   4.4408436 -43.0888329  17.2812500   4.1510239 -43.7216644  17.9544048
   4.6739240 -42.3361664  17.8995743 -29.8774090  -2.2091749 -31.5347633
 -29.9530354  -2.7378409 -30.6787338 -29.7778492  -1.3412778 -31.1825867
  -9.9389381  43.0455551 -14.2266865 -10.8194799  43.3705330 -14.6447830
 -10.2598944  42.1865540 -13.8993435  -9.8438835  25.3609200 -28.1989346
  -9.0212002  24.8216438 -27.9796925  -9.4003696  26.2311401 -28.2622585
  13.0987263 -35.4066696  15.7438507  12.7456160 -34.6852150  16.3616562
  14.0477715 -35.2685509  15.9488325  20.2327518  24.7635708 -13.6246605
  19.2678947  24.5809288 -13.8714256  20.1678429  24.4959164 -12.6727953
 -37.7665405 -13.4129391  14.0006113 -36.8991699 -12.9934530  14.3061199
 -38.4000969 -12.7718639  14.3962526   5.7610164 -32.8524208  27.5820942
   6.3349509 -33.5481148  27.2507744   4.9952130 -33.3264313  27.8736572
 -12.9454575  10.7943830  21.0000439 -12.2250185  10.6045074  20.3796368
 -13.3851509  11.6209593  20.6853561 -12.8654690  18.6137772  39.2632179
 -12.4536505  19.4839172  39.2087479 -12.9113655  18.5060921  40.2594757
   8.2299595   8.0467424 -45.8486519   8.5966692   8.9297180 -45.8786163
   8.7000713   7.5561795 -46.5562439 -17.2677956  10.7424154  31.6702766
 -16.5977802  11.3226748  32.0903168 -17.7243481  11.3912945  31.0561581
  11.3101158   0.0184570  -3.1535549  11.5659847  -0.9566691  -3.1908348
  12.1116257   0.4703537  -3.3930080 -24.1977062 -12.5629358  24.0185127
 -24.3741455 -13.5045109  23.7894878 -23.2641201 -12.5543594  24.1690216
 -17.2958679  -5.9773307  29.7023277 -16.8091145  -6.6479454  30.2809219
 -16.9156265  -6.1373348  28.8544941  -7.7089648  43.1435814 -23.5114765
  -7.8560896  43.4129715 -24.4744644  -6.8294067  42.7636223 -23.5877781
 -38.0435600 -18.8398495 -25.3031635 -38.3115501 -18.2721729 -26.0180054
 -37.1610909 -19.1121159 -25.5855942  -7.6425662 -29.5439777 -19.0436668
  -8.3402672 -28.9011421 -18.7662373  -8.1907959 -30.1298618 -19.5887318
  32.2675781   5.8042078  33.4350014  32.0520859   5.0550404  32.8241806
  32.9748306   5.3917074  33.9406471   0.9508579 -30.6463928 -21.9891949
   0.2182637 -30.2070236 -22.4763985   1.4598243 -31.0836697 -22.6882591
   8.5923309   2.9553783   2.2683361   8.3284960   3.8788664   2.0138552
   9.2226210   2.7846820   1.5217065  30.2373238  33.7951202 -15.7090664
  29.6519661  33.0232811 -15.6136703  31.0405445  33.5951080 -15.1581469
  26.3701687  -8.4530363 -34.4989586  25.4968929  -8.7372961 -34.1865692
  26.8452644  -8.7152653 -33.7137833  11.1272850 -30.0862732 -32.6240273
  11.2797861 -29.8100128 -33.5787430  11.8423452 -30.8117599 -32.5790329
   7.5420051  42.3149796  -0.4059615   8.1815081  42.9789124  -0.7083583
   8.1683874  41.8256874   0.1650375  -7.0846229  -6.6312389  39.4962387
  -6.1030383  -6.6283240  39.6147995  -7.3163671  -6.6045113  40.4759865
   3.6891134   6.6102352  -4.7536163   4.5320330   6.0931015  -4.7967248
   3.4400501   6.5808206  -5.6742034 -23.1947479  36.2923126  23.6001816
 -23.0373306  36.8119888  24.3646507 -22.7564144  36.7906456  22.9326496
  13.8025913  -4.3114796 -28.9215965  14.7502060  -4.0799403 -28.7010365
  13.3478146  -3.7378514 -28.3327084  41.5675888  -0.7844126  21.3043709
  41.9850121   0.0522319  21.5960598  41.6024551  -0.7010459  20.3358612
  11.2186680 -19.3065853 -19.1317081  11.6564188 -20.1768398 -18.9816208
  11.9517374 -18.7076588 -19.1329308 -32.9715462  12.5857468 -24.9424477
 -32.4389915  12.5612221 -25.7578621 -32.9595985  13.5569792 -24.7775726
  10.3541422  42.9531898   8.4281750  11.0037565  43.6421242   8.8337870
   9.9929438  43.6514549   7.7590904 -13.3770657 -17.4753857  14.6030827
 -14.1203938 -18.1303062  14.6177320 -13.7644339 -16.9406395  13.8325872
  26.8365993 -11.7971411 -16.0447388  27.1569843 -11.3899250 -15.1888494
  25.9694633 -12.1937580 -15.8377228   4.4934282   1.8669692 -10.8650398
   4.2747746   1.2786860 -10.1212845   4.0817690   1.3167981 -11.5967560
 -28.5487747  -0.8850256  41.9763794 -28.0530052  -0.8702275  42.7626801
 -29.2249641  -0.1771244  42.1392937  15.8622570 -20.9059086  -5.1322803
  15.7674799 -20.1003075  -4.5734935  15.1026344 -20.6377945  -5.7583237
  -0.9297262   1.0841088 -42.7664299  -1.1159409   1.0093051 -43.7197952
   0.0224891   1.4629713 -42.7960243 -23.7548389  -7.7098117 -34.5362892
 -22.8975220  -7.5742669 -35.0569878 -24.0471268  -8.5301037 -34.9783783
   5.7664223  47.5883293 -12.9781694   5.3883886  48.5118637 -13.0452709
   6.7182221  47.8333969 -12.8879175 -18.9973946 -22.8774891  13.3143473
 -19.6324310 -23.2985020  13.9292316 -18.3757381 -23.6700764  13.2994967
 -13.7340441 -31.3622990  16.3664036 -13.5852375 -30.3879051  16.4938374
 -14.6370802 -31.3870411  16.0078068  14.0595675  -4.1681552  27.2526913
  14.8401423  -4.0319676  26.6618080  14.0720167  -5.1367831  27.1628475
 -13.0835094  34.1678391 -31.9717598 -12.3076029  33.7615738 -32.4391518
 -13.0103083  35.0702362 -32.3762283 -13.4530888 -19.5969791  26.5653496
 -14.0474720 -19.5212097  25.7664165 -12.6937943 -20.0305233  26.1684456
  19.2913589 -10.6133699 -24.2202740  20.0901108 -10.4876385 -23.6285858
  19.5280800 -11.5046816 -24.6329327  36.8668938  27.1383934   1.2432292
  36.9494629  26.7262688   2.1466866  36.8272858  28.0955906   1.5196185
 -41.5182838  -6.6102977  -2.3029811 -41.7178688  -7.5516911  -2.4458804
 -41.8377686  -6.2919469  -3.2284710 -31.0830135   5.3897038  15.4054356
 -31.8636284   4.7511067  15.2747631 -30.6159401   4.8076968  16.0685387
 -18.4064503  21.2115364  12.6760979 -17.8519592  20.4800491  13.0143070
 -18.3188896  21.0002232  11.7043610  13.9459267 -35.2242203 -22.5008049
  13.0237560 -35.2647171 -22.1799221  13.8472204 -35.7265625 -23.3508205
 -15.1585541 -43.0731049  22.0487213 -14.6447296 -42.2769623  21.8002510
 -15.6630669 -42.8653259  22.8269176  -6.2883768   2.1741498 -51.6479721
  -5.7453904   1.9602140 -52.4638939  -5.7898469   2.9280598 -51.3219109
  30.8556137  13.4275293 -29.2063255  31.6747990  13.4002323 -29.6681061
  31.0175896  14.0162058 -28.4579372 -14.8335657  -5.9831562 -16.0528889
 -14.5429668  -5.6435304 -15.1631899 -15.6926394  -5.5879974 -16.0680828
  19.1285534  47.3634872 -13.7730074  20.0611763  47.7347603 -13.7435017
  18.9283733  47.5736427 -14.7030516  32.7585220 -25.0406609 -19.2243614
  33.5386276 -25.0033264 -19.7982979  32.8964653 -25.9971123 -18.9080410
 -29.6200180 -23.2542229  -6.1419172 -29.1362438 -22.3835983  -6.3301859
 -28.8829994 -23.8202171  -6.4018822  31.0959702 -16.3167038 -14.0338297
  30.3816700 -16.9111652 -14.4522152  31.4712029 -17.0123768 -13.3680258
   6.1850662 -36.0787048 -15.7656145   5.5465064 -35.4988785 -15.2970934
   6.9883604 -35.7677460 -15.2793837  17.6256218   7.1517248 -11.7703571
  17.8115635   7.7515960 -11.0350943  17.0693569   7.7659993 -12.3124657
  41.4895973  -6.1102648 -23.7630024  41.0086937  -5.8118024 -24.5680389
  42.3449249  -6.3208551 -24.2034740  43.3262634  -9.3462906  -2.5726590
  42.8192749  -9.2749376  -3.3913651  42.6211662  -9.7987795  -1.9760379
  -4.4385362  11.9605694 -16.4542065  -4.0731940  12.6033831 -17.0023861
  -3.8510957  11.2081518 -16.4939175  24.7674065  27.5575409  18.0615444
  24.4509220  28.4631634  18.3860950  24.1365185  27.0044861  18.4922657
 -34.1133537  -8.6144228  31.6266937 -33.8226280  -9.4542141  31.9966831
 -35.0577278  -8.7660885  31.4613686 -28.1905441   0.6411286 -11.0454063
 -28.7660084   0.0449133 -10.4185257 -28.1714973   0.0974956 -11.8025455
  14.7508221  16.9398479   9.6695766  14.4234600  17.7091160   9.2036390
  15.7263298  17.0393734   9.5916872 -25.2891369  31.7683582  14.8515997
 -24.4648609  31.2851887  15.1049299 -24.9856853  32.6590958  15.1873055
   6.0219846  -2.0767758  48.4733467   5.2139397  -2.5046813  48.8150902
   5.8968306  -1.1737939  48.6500092 -44.8002281  -0.3695937  17.0337563
 -44.2547379  -0.1537484  17.8369522 -44.1453133  -0.8327683  16.4676514
 -22.4085331  15.4979658  18.5247879 -21.7776432  14.9345360  19.0191174
 -23.2367306  15.3823423  19.0557499 -16.2766838 -29.6087265  10.0745773
 -17.1120396 -29.8978348   9.6987886 -15.6970806 -30.2985306   9.5736752
   3.7085783  19.0700054   7.8459044   4.6155353  19.1900272   8.2090521
   3.2149730  18.8231449   8.6470909  28.0379314  32.3425903  20.9350338
  28.6635380  33.0059814  20.6396198  27.9226341  31.8573799  20.1000652
  34.4554634   0.3039097  21.5762024  33.5838318   0.7368706  21.6911087
  34.9420967   1.0490704  21.0903053   9.5563078  -5.9281135  40.5362396
  10.3242054  -6.5681210  40.4424515   9.9518290  -5.1402893  40.2018814
 -44.4422112   4.6615672  26.9639797 -43.6232719   4.3181467  27.3688850
 -44.9169426   4.9673715  27.8014908  28.5289440  -8.9942245 -25.7668400
  29.1560078  -8.5175896 -26.2650909  28.1849728  -9.6442938 -26.4184418
 -31.5479050  16.2432766 -13.9550838 -31.3168240  15.8957644 -13.0509253
 -32.4055481  15.7706575 -14.1122494  20.1280937 -35.7012558 -16.4181137
  20.0941429 -36.0544205 -17.3501472  19.5146160 -36.4016647 -16.0567188
   4.6405172   1.9385433 -44.1283073   3.9893870   2.4146810 -44.6200104
   4.7161379   2.4151213 -43.2662582  35.2445793  14.2085371  -3.7449956
  35.0904236  13.2761326  -3.6484320  34.7871704  14.6321917  -2.9796388
 -35.9885025   2.9265983 -28.3598099 -35.9635124   2.5666695 -29.3089962
 -35.0153694   3.1897893 -28.3153648 -22.5543823 -26.1853447  -5.2318306
 -22.9341125 -26.6846771  -4.4315290 -22.8704300 -25.2888813  -4.9377470
  20.2747669 -37.3795280  32.4822311  20.0807705 -37.9803925  31.7579765
  21.0782948 -37.7504578  32.8562202  31.1773701 -18.4293861  24.3514175
  30.2319241 -18.2389565  24.3003407  31.5624084 -17.6241474  24.7580185
 -42.9985504 -19.7981987  -4.4993052 -42.4630470 -20.0896339  -5.2613382
 -43.4855270 -19.0209808  -4.9332714  -0.5225205  -9.1299362 -38.5725937
  -0.4251259  -9.7620096 -39.3392715  -1.4853051  -9.3345518 -38.4281197
 -35.7415085  -7.6567211  18.9545574 -36.1766243  -7.2376137  18.1774769
 -36.4204407  -8.3152876  19.1360817  32.3020668 -32.4299164  11.1024084
  32.3670998 -31.6152687  11.6481495  31.9999008 -33.0469131  11.8034630
  -5.6295776  19.7513714 -44.0509377  -5.8406982  18.8521862 -44.4281769
  -6.4964175  19.9943047 -43.7129288  15.0344362  29.6148014  -8.9728718
  15.3799553  29.5731354  -9.8638906  14.0961418  29.5545959  -9.1240711
  18.8779030  12.0257998 -20.2563667  18.4775028  11.2799587 -20.7588978
  18.1062336  12.6878767 -20.1946545   6.4543452  10.9251394  43.4180031
   7.3831830  11.2310610  43.4553719   6.0513387  11.7636414  43.1297646
  -5.1412621  -1.3666353  32.9202995  -4.5642414  -0.7249278  32.5445366
  -6.0319028  -0.9193370  32.7934380  10.2012196  37.5873413  -7.5658278
  10.8723812  38.2443008  -7.3141646   9.6921215  38.1504517  -8.1846418
  34.4931946  -5.4959736 -31.3516979  34.4374237  -6.3158865 -30.8109417
  35.4893150  -5.4577465 -31.5554600  29.8175678  -2.9758577  42.1775780
  29.8888168  -3.9446344  41.9930801  30.6297359  -2.6792655  41.5977898
 -15.6784401  18.0564404  22.2164078 -14.8903713  17.5062561  22.3759823
 -16.2311897  17.3353653  21.7924347  -8.9966173  -2.7845204 -11.9708147
  -8.0239096  -2.8304195 -12.3117294  -8.9602652  -3.4172180 -11.2833748
 -18.8418236 -41.1238403  20.0697594 -19.5285530 -40.4433784  20.2787991
 -18.1864090 -40.9222488  20.7498207  -2.7523415  19.8249779  13.8938417
  -2.6632559  20.5532265  13.2279367  -3.6359916  20.0742016  14.2498646
 -13.6861973  34.7518654   4.9259381 -14.3616209  34.1706200   5.3225169
 -12.9797974  34.1120567   4.6922426  -4.3545337 -13.4873791  24.1838455
  -3.6337130 -13.7254944  24.8615379  -4.9370294 -12.9636021  24.7613869
   9.0907822 -21.5294437 -16.7715206   8.2836256 -22.0666313 -16.8960152
   8.9217253 -20.8651752 -17.5189285  21.2252464  11.0064564 -10.6679468
  22.0833607  11.4802227 -10.5532236  20.6288338  11.5167580 -10.1057224
  14.9206409  41.2839127  18.8000870  15.6805763  41.7562561  18.4277992
  14.7478666  41.8260803  19.6293144  15.1138248   7.6139283 -25.7654362
  15.2461576   8.1491280 -26.5403099  15.4359484   6.7655182 -25.9964523
  38.6283417   3.7151291   3.9714823  38.3220177   3.4727824   4.8866358
  37.7968254   4.0850496   3.6298368   0.3883499  -7.8867941 -30.0035210
   0.0834009  -7.8069835 -30.9294567   0.4081770  -6.9437361 -29.7140350
 -29.2951183  -8.4788551  11.8158703 -28.4227009  -8.7812014  11.6141329
 -29.1751289  -8.0548182  12.6537580 -26.5188026  15.7947979 -12.5823927
 -27.2192745  16.2293644 -13.0596809 -27.0104828  14.9818850 -12.3232517
 -41.9384537  20.1663837  24.8250599 -42.4802971  19.3087044  24.7476139
 -42.6584320  20.8209400  24.7941532 -30.6846485   2.4606199  -2.8613183
 -31.3647423   3.1777625  -2.7294009 -31.0308800   2.1754088  -3.7129309
  18.0633736  -8.0447502  19.3719635  18.8138847  -7.9603305  20.0292034
  18.4209404  -8.7174578  18.7866936 -26.3607483  13.1107655  19.9784393
 -27.1088886  13.6127987  19.6099510 -26.5880547  13.0681400  20.9133434
  -6.7487235  20.3093147 -27.4768791  -6.1325784  19.5605278 -27.7159214
  -6.1341629  21.0360107 -27.3566284  16.1273155   1.0931196 -21.1828976
  16.8221493   0.6031871 -21.7264805  16.0647602   0.4924906 -20.4137917
  -3.7363446  -3.0975068  26.0753136  -3.7757840  -3.3426824  27.0072842
  -4.5946703  -2.6826737  25.9413147   6.4115868 -26.3402328  -2.1712873
   5.7937350 -26.7228870  -2.8781185   7.2553525 -26.4441624  -2.6735578
  43.4529991  14.2092581 -19.8136978  44.0480804  13.4568977 -19.9092426
  42.5863152  13.7408123 -19.8777618 -29.9828548  27.5382462 -31.9844627
 -29.3730049  27.2976017 -31.2566071 -29.3999977  27.4496136 -32.7541809
  24.6653862  -0.0156595 -35.1845818  25.5009651   0.0581390 -35.6958389
  24.2511139  -0.7382941 -35.6154060   9.9631805  14.2240572 -15.0149193
   9.0712833  14.7016211 -14.9278955  10.5844955  14.9446573 -15.2824097
 -11.0534840 -49.1202698  -9.8467493 -11.7784138 -48.5208359 -10.2110939
 -10.8501596 -48.7268524  -8.9980087  23.8486691  19.3279037 -10.8537483
  23.0625439  19.0246525 -11.3475485  24.3871059  19.6150875 -11.6302309
  43.1116600   9.7049618  -5.2632833  42.6151428  10.4685183  -5.5548344
  44.0271149   9.9529819  -5.4275694  -6.2548251 -30.3864918   0.7379337
  -5.3362346 -30.7028618   0.7797922  -6.5469284 -30.7081909  -0.1276144
  -3.2527852  36.3949966 -20.6125603  -2.9056227  37.3298912 -20.6070175
  -2.5656059  36.0310936 -21.1676311  27.4784889   6.3410816  30.5332279
  27.2804279   5.4674120  30.0919914  27.9078484   6.8094153  29.7814713
   9.6379728 -23.6400928  16.8314781   9.5540743 -22.6869068  16.6864910
   9.8760986 -23.8836384  15.8799067  43.1471519   4.2974544 -14.1504059
  42.7750931   3.5089548 -13.6415081  42.5266876   4.9753013 -13.7932186
  21.1132240   7.2095180  26.6704636  20.5491276   7.9634304  26.5374241
  21.3399277   6.9513674  25.7479610 -19.1614304 -12.7856264  -9.1297922
 -19.7298069 -13.1849966  -8.3790731 -18.2915707 -12.6929693  -8.6198511
  30.1129417   3.0352745  -8.2664013  30.7344494   3.7006176  -8.5321083
  29.4406204   3.1610355  -8.9827747  29.1323051 -19.1408463  10.9620218
  29.0210972 -19.7078457  11.7234993  28.6438198 -19.5757580  10.2430563
 -26.1821613 -14.1989355  12.7473145 -26.5927696 -13.5308552  12.1340904
 -26.2212334 -14.9947624  12.1728420   8.6639118  30.7650299  12.0139761
   7.7916083  30.2729816  11.8945618   9.2138643  30.0047836  12.4170370
   8.9465332  35.5436592   3.4751725   8.1229572  35.9497795   3.9022720
   9.4232721  36.3514671   3.2097313 -43.6522331  27.3440285 -10.3304052
 -43.2538643  27.7473316 -11.1453857 -42.9332733  27.5583191  -9.7183676
 -16.2740612  -4.1585894  42.4650879 -15.5660524  -4.7375922  42.0288467
 -16.9008141  -4.2742271  41.7653351  39.4934654   1.4225423  11.4463387
  39.3419495   0.9524909  10.6062393  38.9130974   2.2519696  11.2662735
  -0.5920801 -17.6257076  16.6767368  -1.1441804 -18.1991367  17.1998348
  -0.3986377 -18.1804333  15.9367809 -36.9853058  12.2189341   1.3046292
 -37.8806229  12.5611219   1.5902909 -36.9831734  12.7560015   0.4512722
   8.5895042  47.7549515 -17.1199627   9.0724277  48.6011772 -16.9117756
   7.7280712  47.8974152 -16.7838688   6.0554090 -30.2080231   0.0974004
   6.8584876 -30.4438839  -0.4210378   5.9422297 -31.0627213   0.5203152
 -25.6197414  27.0188484  34.8708534 -26.2585564  26.5161343  34.3333855
 -26.1652584  27.1619015  35.6597595 -13.9543867   7.9465890  39.1034660
 -13.5150347   7.1110134  39.2758713 -14.4179249   7.7985587  38.2309074
  10.2826233  -5.2739291  -7.5586214  10.6498327  -5.6387444  -8.3885965
  11.0990944  -5.3967905  -7.0234227  -9.7533379  42.9938622 -21.5394230
  -9.7949228  42.0062866 -21.3950043  -9.0338268  43.0426407 -22.2035961
  -7.5664606 -26.6002312 -28.0861092  -6.9947348 -26.6693478 -27.2664413
  -7.8086371 -25.6737232 -28.0902462  19.5462418  13.8237534  -7.4517345
  18.6213818  13.7627563  -7.7802272  19.5268250  14.4966755  -6.7255149
 -23.1233158  31.6993294   1.6035745 -23.5842571  31.0463543   0.9483136
 -23.5827618  31.4740658   2.3995218  16.7346287  16.7156372  31.1997337
  16.5509491  16.0024395  31.8166122  15.9424744  17.3088665  31.3088379
  21.2261028 -11.1614647 -10.1181345  20.7194519 -11.5696917 -10.8102016
  20.5189171 -10.5517035  -9.7778931   1.2341721 -12.9675341 -33.7578011
   1.0610564 -13.3642740 -32.9038506   1.1741784 -11.9618149 -33.4898224
 -29.0838356  21.1051407 -14.9143305 -28.1915417  21.4624748 -14.9132185
 -29.1657314  20.8592644 -15.8341255 -41.7753716  -1.0358655 -20.7491016
 -41.8511810  -0.1731499 -21.1859856 -40.8016396  -1.1940846 -20.8103733
 -17.4915810 -11.7859106 -21.9308910 -17.2689476 -11.1044283 -21.2147179
 -16.7571583 -12.4006348 -21.7712994 -19.1135330  15.9567442 -18.6241627
 -19.0531540  16.6558590 -19.3506775 -19.6921139  16.4261932 -17.9764729
 -24.8649540  38.3038406  13.1698904 -25.4124718  38.0217133  12.4425049
 -25.3871460  38.0913429  13.9221096  -1.6419405  -0.0823996 -34.2845612
  -1.6541486  -0.1022224 -35.2874527  -2.2899590   0.6784524 -34.1312714
  12.8931885 -26.3593273 -13.6655293  13.5964632 -26.3484364 -14.3836279
  12.3830538 -27.1342030 -13.9574118  31.9546146 -15.9762535   2.7723083
  31.0365696 -15.7004976   2.9785168  32.3818054 -15.8920708   3.6029727
  12.6821337  34.1172256  -3.2742095  12.2264957  34.2531090  -2.3794868
  12.1419926  34.7765160  -3.8150601  15.2557688  28.8651581   8.8445263
  15.4050865  29.4506321   9.6150589  15.7755423  28.0643406   9.0979195
 -16.8024540  10.3301067  49.1054115 -16.0536366  10.4620905  49.7330551
 -16.3264790   9.7959185  48.4242287  14.1162071 -41.1633530 -25.7896729
  13.4621944 -41.9510269 -25.9275322  14.9008741 -41.6752510 -25.9762001
  -2.4009390  37.2463951  31.3755951  -2.0601330  38.1343231  31.5570259
  -2.5920053  37.2655907  30.4191895 -44.7741013 -25.2875614 -14.6992168
 -44.4859467 -24.7526150 -15.4739275 -43.8927383 -25.5633926 -14.3756084
 -33.3937836  20.9693470  -1.2945411 -34.0457573  21.6223125  -0.9580598
 -32.5609283  21.4221897  -1.0277069 -30.1935844 -11.5298929 -30.1682243
 -31.1433201 -11.6947727 -30.2518635 -30.1258392 -10.6243095 -30.5676079
 -32.9207153   8.6733522  14.5164595 -33.8316345   8.5837612  14.2112169
 -33.0580902   9.1988373  15.3035946   4.8600683   6.0498338 -24.0895119
   3.9672184   5.7878189 -24.3062534   4.6999221   6.6275935 -23.2518482
  -5.8243113 -20.6086483 -33.5134583  -6.5198212 -21.3384953 -33.6177330
  -6.1913819 -19.9061775 -34.0774345 -40.3459244  32.4687538   3.2570391
 -41.1110878  32.1039848   3.7847903 -40.0850563  33.1920128   3.8469458
 -34.5520554  18.6989937   2.7112732 -34.7777519  18.8098164   3.6471608
 -33.7468109  19.2814579   2.6979697   2.5289848  -6.8554549  33.3254166
   2.7159460  -6.3044448  34.0738525   2.3006859  -6.2130909  32.6676521
 -28.7540054   8.4468288 -24.3343773 -28.4846859   7.6071348 -23.9097672
 -28.4276905   9.0898848 -23.7064953  -6.9895306 -40.6486549  24.8489075
  -6.3107595 -40.2966690  25.3521042  -7.5511408 -39.8600464  24.7290554
   3.3417742 -20.3787708 -11.8556328   2.9495904 -19.5544033 -12.2686901
   3.4193923 -20.1066723 -10.9655724 -12.3988867  39.8280678 -29.9769192
 -11.7934160  39.2224960 -30.4358349 -11.8575134  40.0588341 -29.1692734
 -34.0848007 -30.1565456  -4.4704199 -34.2694778 -29.2641773  -4.8086987
 -34.8874855 -30.3274536  -3.9679971 -39.6932487  -3.6738565   9.7976208
 -39.6539955  -2.6811194  10.0049105 -39.0065727  -4.0210752  10.4044933
 -40.2138100 -14.4605885  27.5480404 -40.2035789 -15.4402294  27.8323078
 -39.3129387 -14.2407618  27.8920116  34.6271248  -1.9177747  27.3998432
  34.9198532  -1.1483257  26.8554783  34.2268410  -2.4987409  26.7612152
 -23.3041019 -31.9715023 -19.7535496 -23.1882839 -32.8541222 -19.2452812
 -24.2532291 -32.1388016 -19.9921036  10.4464464  31.7760868  -7.6728458
   9.7807856  32.2874069  -8.2499704  10.2658434  30.8722363  -8.0758410
  -4.5975704 -23.7469063   4.7949300  -4.9766536 -23.9670620   5.6521153
  -3.7087247 -23.4802723   5.0942807  44.1582451 -29.9751263  10.2013397
  43.2930069 -30.4693279  10.2585411  44.7231979 -30.5973244  10.7380428
 -31.5105114   8.2443542   6.6687422 -32.1848793   7.6817298   6.1807814
 -30.6941643   7.9966350   6.1451268 -17.2165089 -33.8750229  -7.5286255
 -17.3076401 -34.5115013  -8.2524824 -18.0160866 -34.0101318  -7.0921512
   4.0240860  -4.7331638  30.6958179   3.1726980  -4.9094796  31.0585461
   4.3728127  -5.6615014  30.6422443  37.9804306  23.4995956  16.9198856
  37.1314316  23.8765259  17.0748425  38.3213272  23.3237152  17.8467636
  33.2299042   0.8693366  36.8277893  33.2088127   1.8054676  37.2188416
  33.1491776   1.1957760  35.9059563  14.4934483  38.1945686  23.7318497
  15.1459913  37.6588936  24.2129517  14.9189482  39.0286903  23.8034401
  -5.7955060 -41.4504623  22.5208931  -6.0653825 -41.2650185  23.4341888
  -5.7872086 -40.5568581  22.1126575  -9.9688873 -11.6296654  12.6762762
 -10.5460844 -11.9352303  13.4106283  -9.3298769 -12.4144354  12.6929884
 -18.9381371   3.1803637 -39.5706215 -18.8716717   3.6043720 -40.4481239
 -19.4557800   2.3802242 -39.7354660 -36.6152649 -30.4003468  -3.5356791
 -36.3302040 -29.5112534  -3.2422535 -37.3707809 -30.6035385  -2.9049067
   5.9522996   1.1143216 -41.6510239   5.9388962   1.4434521 -40.7011299
   6.2270474   1.8667928 -42.1552315  42.9001312  25.0211143 -16.2970886
  43.5897369  24.9674740 -16.9472065  42.5251770  24.1147633 -16.2361603
  21.7389793 -18.5174007  21.4948902  22.1639633 -19.3074627  21.8827591
  20.9694901 -18.9739876  21.0441761  -7.2402682  -6.9696045 -14.6633949
  -8.0640583  -6.5602646 -14.4882011  -7.4645915  -7.8872313 -14.3058519
 -20.3516579 -23.1301498   8.7986650 -20.3759174 -22.9482193   9.8030834
 -21.3258514 -23.1644516   8.6443539 -35.4292755 -10.9017859 -18.6071033
 -35.4864616 -11.8903294 -18.7793236 -35.6767311 -10.5961409 -19.5196857
 -14.0044460  -8.0624151 -28.8791409 -13.9810200  -8.0214109 -29.8426361
 -14.9380913  -8.2846699 -28.6579361  29.6397095  15.9490147   5.6045289
  29.6593399  15.1948605   6.2224741  30.4437637  15.7363749   5.0660377
  42.3368530 -18.8362331 -19.6067429  42.3810768 -18.3951435 -18.7337551
  42.9315300 -19.6179218 -19.3987637  23.0373516 -12.5410976 -18.4676113
  22.7864819 -12.3770714 -17.4964027  23.9309120 -12.1295300 -18.3774281
 -27.8173389   0.4473775  26.9026337 -28.3833618  -0.3107976  26.7153187
 -26.9304256   0.0842501  26.7697525  -4.4560237  -3.9854267  -4.0454693
  -4.8308473  -4.7086005  -4.6254692  -3.5945780  -4.4566317  -3.8510559
  -3.5313740 -17.1657124 -19.2534523  -3.4894314 -17.2918663 -20.2012787
  -2.8196244 -17.7762413 -18.9864788  15.4131336  13.2329264  -3.2806795
  16.1217422  13.1173115  -2.5860157  15.0490246  14.0691471  -2.9235580
 -35.4983444  19.8317070 -10.4607153 -36.3087769  20.2668095 -10.7376509
 -35.8482857  19.0849781  -9.9389687  -3.9676909 -26.1185455 -24.3424664
  -3.1052210 -26.0921402 -23.9239197  -4.4505725 -26.6827469 -23.7196064
  13.0200806  -6.6687264  50.4508133  13.6275244  -7.3112950  50.8857384
  12.2476358  -6.7165031  51.1112404 -37.2240486  30.5898857  -1.3479614
 -36.3366013  30.3064823  -1.5589039 -37.6074715  30.7093258  -2.2724481
  12.9670153 -36.7641602  32.9694633  13.2491655 -36.5100822  32.0876389
  13.2097015 -36.0192146  33.5126381  16.1973991  -7.5955343  21.4098721
  15.4580708  -8.1988277  21.1306343  16.6072063  -7.4686718  20.5365582
  33.7553940  20.9217739 -22.0654907  34.1728401  21.4438477 -21.4133854
  33.5096970  20.0743752 -21.6105442  16.8735695   2.2626064 -41.5502739
  17.5065269   2.7004950 -40.9236679  16.4922447   3.0983047 -41.9480438
  32.5826263  16.3736115 -29.7211819  32.8704262  15.4369488 -29.7712212
  32.6537628  16.5925064 -30.6313705  15.2661142  24.4061584 -33.1807823
  15.5796013  24.0743446 -34.0461540  16.0219479  24.8396282 -32.8071289
  16.6579304   2.0934756  16.4693909  17.2967701   2.8610659  16.4134445
  17.1670303   1.4257545  15.9736996  29.0623837  10.0577707  -9.6695976
  29.5517521  10.5278912  -8.9693737  29.7822857   9.4533806  -9.9958124
 -21.9058571   2.1505244   8.6504345 -21.2832851   2.7690446   8.2242718
 -21.3065681   1.3746188   8.8015356  -9.4898338 -38.2085876 -11.6910515
  -9.0481453 -37.4730644 -11.1139927 -10.1212034 -38.5019188 -10.9602594
   8.7373705  -1.3427762 -29.4432812   8.3731508  -0.6494869 -28.8380795
   9.3838854  -0.8825248 -29.9836884  -8.0898771  16.3140488 -28.9299641
  -9.0209332  16.6380119 -29.0793705  -7.6512294  17.0180378 -29.4815540
  14.5965796 -16.1311626 -14.4776430  14.0501118 -16.0475483 -15.2673492
  14.4156885 -17.0783501 -14.2709389 -41.9094467  30.8837509  17.3870201
 -42.3442039  31.4000511  16.6766167 -42.5295334  30.1373787  17.4772873
 -26.7418480  10.2873774  20.5040245 -27.4281540  10.2035828  19.8038616
 -26.4866219  11.2590666  20.4412155 -40.5177498   4.4821625 -19.7844524
 -41.1209297   3.8009274 -19.6539364 -40.3686714   4.7739906 -18.8388004
 -11.2579708 -12.1045771   1.9665204 -11.5231133 -12.9915504   1.6503553
 -11.8447504 -12.0695686   2.7564883  18.1202145  29.9848518  -8.5415573
  17.2027073  30.4119301  -8.5858707  18.1520042  29.8154888  -7.5711508
  -2.1111803  18.1797409  28.3097019  -2.9272976  17.8004837  28.5308113
  -1.9290298  18.7883549  29.0055332  11.6311245 -17.8370571  25.7642460
  11.5734806 -16.8637695  26.0458469  11.2280703 -18.2208290  26.5811157
 -13.1513357 -19.7444153   5.0203409 -13.4429569 -19.3685875   4.1617150
 -12.5336475 -20.4602432   4.7335587 -37.0167656   1.7928867  39.9629250
 -37.6047745   1.0088594  39.8961678 -37.6684532   2.5106170  40.2593193
   3.4038036   4.3748875 -34.3354378   3.0877631   3.9512877 -33.4836349
   2.7946651   5.1780853 -34.2385635 -19.8421955 -38.9000053 -10.2618885
 -20.6230984 -38.3699150  -9.9320116 -19.4964333 -38.2493172 -10.9580011
 -21.4292908  31.6405430 -33.9187050 -20.7866669  32.3440018 -33.9999619
 -21.0104313  30.9790745 -34.5804520 -27.8183975  -2.1130390   9.6748762
 -27.8512993  -1.3793201   9.0514545 -28.6668282  -2.5584331   9.4957972
  27.3683243 -22.8145103   1.8425088  27.8731270 -23.6370792   1.9205695
  27.2592850 -22.5372887   2.7572577   8.5582638 -18.9226570 -30.1646996
   8.3460093 -19.1281300 -31.0715027   7.7202501 -19.0140629 -29.7120686
   3.9778357   0.3331326 -13.1339169   3.4247358  -0.4366281 -13.4796686
   4.0797620   0.8833982 -13.9889851 -42.1789169 -23.4008846  16.5752430
 -42.0034103 -22.5225964  16.2111454 -42.4742165 -23.2141609  17.4935951
  22.3657131   3.6512766 -34.4186478  21.8464756   3.0376756 -33.8575592
  21.9130001   4.4892783 -34.2194138 -13.7502527  26.3497677  18.2195625
 -14.3538303  25.9780998  17.5924549 -14.2726898  26.6913433  18.9671764
 -44.3840981  24.3911629 -18.5536442 -44.2998276  23.8454666 -19.3514729
 -44.0656395  23.6690807 -17.8788490  22.5507698 -35.5655022 -27.8938026
  22.2677841 -36.0874367 -27.1070805  23.2974072 -35.0926933 -27.4940968
  20.0548420 -26.5933247  -0.9472811  19.4319477 -26.4854946  -1.7073306
  19.4694557 -27.1244316  -0.3586358 -40.7375717  30.8041458  19.9331436
 -39.7929649  30.7922573  19.8221283 -41.0954285  30.3106976  19.2078953
  34.5588074  -8.6425781  36.2721710  35.2827530  -7.9254937  36.2499809
  35.0253181  -9.2911291  35.8015709  36.2896461 -24.8624496 -11.4865971
  35.9723663 -25.7573853 -11.7836666  35.5689964 -24.5791378 -10.8865356
 -43.1627769  10.0911617  -6.5749178 -42.7898636  10.6100187  -5.8293109
 -42.5358276  10.3553133  -7.2804809  18.9714546  -6.9665136 -32.9230347
  19.0326958  -7.4959908 -33.7254562  18.1157970  -7.3145227 -32.5614319
 -19.4971447  -8.3954563  34.8100281 -19.2148914  -7.8681397  34.0107880
 -18.5855675  -8.6329575  35.1403389  16.3840504  20.6324730   1.2558372
  16.2552147  21.6264000   1.1036167  15.4845219  20.4206333   1.5128342
  29.0365219 -19.2920532   7.2356548  29.7578526 -19.8973351   7.4448113
  28.3895016 -19.5807667   7.8598475  29.1126347   5.0801539  35.4554520
  28.6187649   5.0833488  34.6470871  29.0935154   4.0742936  35.5618668
 -24.3151855  11.2590942 -16.5092678 -23.6453419  11.9062328 -16.1977558
 -23.8495235  10.9807310 -17.3208370  -1.6483599  20.4414463 -39.1293221
  -1.5083579  21.3947506 -39.4675865  -0.7732466  20.0959339 -39.2047195
   2.8715339  -7.8518796  12.6349831   2.8255649  -6.9924803  12.1287079
   3.3305228  -7.5576839  13.4334145  21.5908756  20.2499714  22.6079159
  22.3450127  20.8634663  22.7457905  21.1665955  20.2779675  23.4914570
  22.5273247   5.9072299  21.4457722  21.8477707   6.1298118  20.7680435
  22.3783493   4.9362535  21.4979382  -3.7378604  21.5222874   6.2157960
  -3.5209894  20.5559006   6.1038918  -3.0190661  21.9048691   5.7110338
  35.2832718   9.0579252   6.1099577  34.3312798   8.7030716   6.0573692
  35.6608467   8.5047388   5.4656448  20.7249889 -18.7274532  10.2823915
  21.4918499 -19.2487354  10.5760031  20.9624767 -18.5864258   9.3327475
  12.2039108  39.3644142 -15.8860435  11.2908669  39.6612358 -16.0181293
  12.1439934  39.1537132 -14.9164581  -1.1605452  35.6851158  -4.5801544
  -1.8462143  35.4881783  -3.8484607  -0.6255969  36.3558464  -4.0767708
  13.1863518 -21.8649311 -19.3181190  13.1916037 -22.8310852 -19.5689659
  14.0403891 -21.5410042 -19.8085117  -9.5014353 -24.5785923  10.1627340
  -9.4849625 -25.1808739   9.3842049  -8.9352989 -23.8694782   9.8540010
 -28.8270454  -2.7537739 -18.3573647 -29.4633789  -3.2063153 -17.6893845
 -28.9956341  -1.8693768 -18.0592957  -6.7439413  18.9384232 -38.4803925
  -6.7911673  19.6480160 -37.8336220  -5.7432499  18.9083347 -38.6295624
  42.3619118 -23.0881557 -17.0350037  41.8887138 -22.2555027 -16.8951225
  41.7717552 -23.7764206 -16.7703838 -20.9785862  -6.4785266  -5.9635048
 -20.6627884  -7.1817756  -6.5519691 -21.3157597  -5.8370099  -6.6095209
   3.3336430  10.0201349 -39.3909302   2.4910717  10.0049334 -39.9133568
   3.5890150  10.9694977 -39.6520271 -29.6466923 -21.6940784   2.5830028
 -29.7106457 -22.1991081   3.3887227 -29.2984695 -22.3603725   1.9328562
  39.0821342 -16.5886917  -9.5407066  38.3923569 -16.8608246  -8.8389082
  38.5901604 -16.0478821 -10.1663275 -17.7525272  37.2428589  24.0780354
 -18.1685104  38.1720314  24.2907581 -18.4737740  36.8639488  23.5731468
  -3.0014358  29.4632931 -29.2284546  -3.3641751  28.5215397 -29.0894699
  -2.4366210  29.3793125 -29.9557514 -21.2682495 -31.6877270  17.3562679
 -20.9965115 -31.2320423  16.4910965 -20.7157173 -32.5100861  17.3322201
  22.3474426 -24.4249020   6.2432933  22.1550274 -25.3718338   6.2628245
  22.9597931 -24.4289360   7.0204048  11.7315502 -39.0377312 -30.7935314
  12.0180845 -39.9407692 -30.9443436  10.9340229 -39.0402489 -31.4621181
   6.0989203   6.0915198 -11.3737326   6.6013403   5.7975402 -10.6074009
   5.3524489   5.4498405 -11.3819637 -14.5801678 -18.7373543 -10.4812803
 -13.7475433 -18.6360607 -10.0207701 -15.0166988 -19.4002762 -10.0215750
  20.3634529 -24.0454102 -17.1719456  19.4584446 -24.4614601 -17.1042728
  20.9063950 -24.8394966 -17.2712841 -21.9101410 -15.8595915  14.2656479
 -22.5311127 -16.5552483  14.2702646 -22.3463078 -15.2475672  13.5841112
 -32.5597305   7.5056710 -15.9661760 -31.7449570   7.1637306 -15.5778780
 -32.7875481   6.7690096 -16.5456009  -5.2551270 -23.8418198 -16.3133240
  -4.7092452 -23.1929150 -16.8039188  -5.5322208 -23.3242722 -15.5727911
 -18.1339054 -45.0430794  13.7749329 -17.7404728 -44.2121391  13.5565977
 -17.6312027 -45.2967911  14.6299314 -30.9177780   2.0568123 -11.6146088
 -30.6108913   1.1537112 -11.7484503 -30.1973495   2.4814982 -11.1281109
  11.8279829  37.8325539 -13.2315722  10.8888950  37.8641396 -13.5148487
  11.7818050  38.0972176 -12.3148565  40.4483032 -26.4413319   5.6041265
  41.2915573 -26.7288265   6.0395536  40.6628685 -25.4614811   5.6366639
   5.6150904 -19.6436119 -42.4539185   4.9632931 -18.9506626 -42.2042770
   5.9621968 -20.0354748 -41.5980682 -23.6783199  25.7425156  22.3599319
 -22.8591976  25.7510662  21.8370285 -23.3465805  25.7194729  23.3037548
  12.3974648 -26.6386051  13.3056030  12.8739233 -27.0077457  14.1143856
  13.1816168 -26.1211834  12.9888754 -15.3912382  13.2479792  26.4063301
 -15.5390148  13.9614239  26.9989605 -15.6727743  13.6085567  25.5427341
 -19.0343170  34.6950798  16.0107899 -18.8681126  35.6392097  15.9925232
 -19.3053970  34.5500298  15.1300354 -17.3563995  11.6904526 -32.0979271
 -17.4651432  12.6113043 -32.4270401 -17.8734856  11.1974001 -32.7635841
  34.5489616  33.7958336  -9.7453079  35.2929230  33.5220337  -9.2239885
  34.2355537  32.8885803 -10.0879087  -9.8401842 -37.0473061 -20.2864246
  -8.9618626 -37.0845718 -19.8933907 -10.1179533 -37.9642563 -20.0883465
  33.8862000  25.4787273  23.9944382  33.8325043  25.2174625  23.1153011
  33.5536346  26.4413528  23.9663143 -36.7442360  22.2664661  -7.2737050
 -36.9522247  23.0355968  -6.7281885 -36.3660316  22.6877594  -8.0453672
  21.0204067  24.6018276  17.1648235  21.8026600  24.8938179  16.6439743
  21.2379951  25.0327778  18.0140438 -10.3896685  10.9926538 -32.8292351
 -10.7422180  10.8545742 -31.9609756 -10.5564461  10.1684847 -33.3019257
  -5.7899485 -16.8899593   5.4437017  -5.0264568 -17.3252125   5.8651595
  -6.5659776 -17.4999504   5.6796145 -15.2044458  29.8585300  22.7670307
 -14.8527994  30.0578976  21.8482361 -16.0805283  29.5269699  22.4814053
 -36.0893593 -10.0184078 -32.6122208 -36.2396774  -9.3649282 -33.3385963
 -35.2494583 -10.4165707 -33.0028267  -8.3847733 -33.9794388 -28.6575794
  -8.5777721 -34.9293633 -28.9362717  -9.1234875 -33.8268166 -28.0118961
  19.7991314 -22.5190258 -31.1157551  18.8063965 -22.3696690 -31.2813969
  20.1077518 -22.2268791 -32.0360413  37.8398018  22.6792736 -11.2164268
  38.0596428  23.5185452 -10.8331156  37.4993439  22.9767780 -12.1061640
   1.3255277 -22.1645145  23.8615341   1.3131289 -23.0949459  24.1128464
   0.3486573 -21.9963989  23.8429546  35.9315529  15.1208410 -12.4020758
  35.5935440  15.9622507 -12.0959435  35.9489059  14.6243763 -11.5560017
  15.7913523 -16.1054878  -7.9873414  14.9875097 -16.0624599  -7.4085870
  15.4480915 -16.6467495  -8.7226839 -27.4445858 -26.7836208  -8.2959156
 -27.1360168 -27.6204929  -8.7609587 -28.3404789 -27.1121254  -8.0926495
  22.5406227 -22.5617676   2.1091735  22.0129414 -22.8305473   2.8845658
  22.0132389 -23.0108910   1.4043980  10.1977606 -15.0338497 -16.5026665
  10.5761709 -15.1552153 -17.4897499   9.2980566 -15.3684702 -16.6179295
  19.9455128  -6.4881835 -18.8785725  19.5441284  -6.5505986 -19.7950439
  20.5195103  -5.6407309 -19.0479927 -22.3758087  12.1881227 -39.0251274
 -22.7626247  11.3320971 -39.0723686 -21.7964287  12.0964670 -38.2122688
   9.1103792  39.7672310  -9.2182665   8.7534161  40.2417297  -8.4279032
   8.3520489  39.4226952  -9.6261988  12.5193253 -13.6069374  -9.0547028
  13.3370762 -14.0165472  -8.9595623  12.1115046 -14.0279646  -9.8407621
  -5.2959561   5.8757610 -53.1664963  -5.8285379   6.4951053 -52.7151794
  -5.9925747   5.3188906 -53.6198654 -34.5604630  -6.0119886  32.4145279
 -34.9079819  -6.2476087  33.3107948 -34.0081215  -6.8091068  32.2770233
 -34.1539078  33.2911682  15.4122257 -34.9847183  32.7740288  15.5799589
 -33.9306030  33.5098495  16.3435135 -16.2598190  -7.8550410 -25.6886978
 -15.8335848  -8.7677708 -25.8333855 -16.9775524  -7.8925209 -26.3409882
 -18.9528255 -42.0187607   8.1648998 -18.7555122 -41.7835236   9.0644484
 -18.3026943 -41.5129471   7.6892815  15.7024307  27.2740707  17.3140182
  16.3033562  26.5135708  17.2729740  15.9370337  27.7671986  16.5287132
   5.3484998   9.6767397  35.9065361   5.9529557   9.3725462  36.6675644
   5.2192421   8.8439693  35.4843254 -14.8239241 -16.4120045 -21.6403885
 -14.9093752 -17.0737553 -22.3631725 -14.8539152 -17.0058804 -20.8365860
 -42.7560234   5.7152171 -26.0541077 -42.9486618   4.7986441 -25.8285561
 -42.4192924   5.6961594 -26.9283772  25.5690441 -30.5332737 -20.0321903
  25.5369167 -31.4161930 -20.3498898  24.6283817 -30.3497562 -19.8362255
  -1.5155113 -37.6035385 -19.9798279  -2.0599413 -38.1370926 -20.5846653
  -1.9722525 -37.7563362 -19.1482334   3.1693883  43.0613518  17.1122932
   2.9317319  42.2805939  17.6833115   3.7235575  42.5993958  16.4500065
 -11.4299774  18.6641464 -45.4437981 -12.0413837  18.4012413 -44.7027321
 -11.9852257  18.4467030 -46.1909447 -13.2774210 -44.6057014   5.3837247
 -13.8671532 -43.8907433   5.8199625 -12.9801073 -45.0963745   6.1636620
 -21.3511620   1.8116020  28.8159504 -21.3390236   1.1552855  29.5242043
 -20.4682751   1.7646800  28.4581070   9.2867355  -2.7799964  16.5478344
   9.4650068  -2.1232514  17.2730083   8.4815359  -3.1715295  16.9798965
 -24.4264908  -3.4647458  28.3431835 -24.1042557  -2.5618982  28.5620155
 -24.8736801  -3.6842370  29.1948090  44.0243111  26.0872059  -3.7124074
  43.1410522  26.1302338  -3.2927606  43.9081154  26.8404465  -4.3670635
  29.5429077   2.1949031  34.6935387  29.3770733   1.3266383  34.3212090
  29.1767387   2.0109394  35.5853271  -5.5166059  28.2727585 -37.3022537
  -5.3959045  29.0250702 -36.6269493  -4.5813160  28.2751102 -37.5962067
  26.5821476  27.3740387 -16.6970615  27.5502796  27.5738964 -16.6366634
  26.4545670  27.4663563 -17.6472225  13.1519127  42.2030983  11.1257448
  13.9855967  42.7165413  11.1427650  13.2408018  41.7103767  10.2951899
 -29.6266766  18.0168915 -25.6660137 -30.2404118  17.3177509 -25.9910679
 -29.9692764  18.1750736 -24.8162327   4.8784885 -17.3334103  33.9008598
   5.5146351 -16.5821152  34.0257378   5.2385225 -17.6667919  33.0386887
  18.2830029 -29.9846134  -7.9852757  18.1010647 -30.4389629  -8.8306799
  17.3427124 -29.8029251  -7.6862965 -18.8968868 -13.8767681 -27.1245003
 -19.3648376 -14.7177010 -26.9866772 -19.6470032 -13.2721920 -27.0481014
  13.2636547  -9.0465727   8.2774534  13.1198931  -8.1845331   7.8435454
  14.2046700  -8.9116611   8.6757984   8.8114109 -26.7480164  -3.3737984
   9.4194136 -26.0273666  -3.0765481   9.0235453 -27.4495239  -2.7007337
 -42.2806473  17.7983170   3.7446580 -42.7481804  17.3459759   2.9726827
 -42.9250793  18.4581013   3.9861875 -40.7529716  16.2388020   8.4689941
 -40.7173271  16.4541340   7.5120039 -39.8008499  15.9789772   8.5955029
 -21.8741322 -15.5522261   6.9049749 -22.3388023 -14.6997452   7.0826230
 -21.4486103 -15.6233425   7.8120551  -2.3154960  -6.2551293 -15.0613651
  -2.5219929  -5.4310575 -15.5171165  -1.5034655  -6.0693140 -14.5880632
  -5.4012709  36.2909622 -31.1393509  -5.5437083  35.5266685 -30.5952530
  -4.5108571  36.5699310 -30.9280930  -8.6059132  11.2226410  -0.0842182
  -8.6123343  12.1996355   0.0732470  -8.0352297  11.2425804  -0.9107716
  33.7485619   6.5907502  17.7287292  33.1700211   5.9789186  18.2857208
  33.9568558   6.0172663  16.9761047  -4.7053638  33.9339905 -24.3960857
  -4.2623501  34.6500015 -24.8592415  -5.3316622  34.3827095 -23.8004322
  10.4545469  28.5266628  19.2248287   9.6784573  29.1107674  19.1102486
  10.8418865  28.9749355  19.9414864  -3.6702135  41.9350090  27.5303993
  -3.2766581  41.4967079  28.2484989  -3.8038373  41.2475395  26.8504562
 -43.7110977  25.5088787  13.0601664 -43.3027840  26.1576862  13.6585331
 -43.2119751  24.7371979  13.3157368 -30.9539337  15.2521524 -11.6576862
 -31.5709286  15.6955891 -11.0358047 -30.1997547  15.1009903 -11.0967073
  30.7649841  37.5010147 -19.4350967  31.5775890  37.4634514 -19.9623508
  30.8073158  36.6382561 -19.0245781  25.9144650   2.4856651  41.5444260
  25.2566891   2.6723049  42.2960052  25.1848831   2.4214873  40.8486099
  -2.9775155  14.9906178  -1.1097161  -2.8437533  15.4804678  -0.2123594
  -2.0472567  14.8124208  -1.3407518 -18.0898590 -24.7279434  -7.5426154
 -18.1065826 -23.9692860  -6.9154196 -18.9865532 -25.1840687  -7.3032007
 -10.0906315  15.1501493 -25.3824997  -9.5360718  15.8565378 -25.8057289
  -9.3841190  14.6342745 -24.9489136   3.0812838  46.9866409  -6.5400567
   2.7525103  46.2106514  -6.0382481   3.1528594  46.5896034  -7.4340696
  23.9652367  41.7557716  18.7441559  24.7639751  42.3325882  18.5474396
  23.6965160  41.5874863  17.7781582  41.4508629   9.1312675 -21.0758686
  42.2086716   8.7368431 -20.5947933  40.7059555   8.8503656 -20.5072956
  25.7345562  -8.1834879  -8.2724981  25.4588623  -7.6764526  -9.1242638
  25.4321003  -9.0640965  -8.5612717  38.2302399  -8.3498487 -21.0549259
  38.4694099  -7.3894324 -21.0036011  39.1338501  -8.7077103 -21.1790752
   5.5332131  42.6348724 -11.0122976   6.3449988  43.2025642 -11.0735893
   5.9527149  41.8928375 -10.5682592  10.2306671 -40.7094498 -21.4397087
   9.3060427 -41.1057587 -21.5132675  10.1449471 -40.0530586 -22.1319771
 -34.4134293   1.1103296 -14.0169754 -34.4428444   0.1332401 -14.0434275
 -35.3410416   1.2709370 -13.7333536 -12.7482576  19.3601990 -15.5243473
 -13.2485046  18.5398712 -15.4139090 -11.9266224  19.1669159 -15.1044207
   7.1353769  20.2293682  -6.3543658   7.6978645  19.8588219  -5.6587987
   6.4461884  19.5686073  -6.4441981  -2.8129814  18.0552387 -41.2526054
  -2.1492255  17.4219532 -41.4195786  -2.5458734  18.5141716 -40.4615021
  39.7957649  -2.1716781 -17.7816372  40.1604080  -2.5503962 -18.6398144
  40.4391594  -2.4673650 -17.1181145   8.7473764  -4.8039570   4.8963170
   8.2167435  -4.7841926   5.7481956   8.5608034  -5.8140674   4.7290673
  41.3988838  12.2189064  -2.3602676  41.8584023  11.4342442  -2.7245488
  40.8938522  12.5096321  -3.1713846   6.2989707  32.3312759 -31.8318062
   6.9175596  31.8679276 -32.3620338   6.0286608  31.6932678 -31.1565018
 -28.2022743 -18.5004482  16.3462143 -28.1148090 -17.5214081  16.3690338
 -27.2542305 -18.7159786  16.3497829  26.8342800 -18.1928177 -39.5168610
  26.8449154 -18.3393269 -38.5375862  27.0402546 -19.1060925 -39.7850571
 -10.2359257  18.8372421 -14.7993507  -9.7945099  18.8950615 -15.6375914
  -9.9852686  17.9005108 -14.5037842  17.7613659  40.5100975   3.0204389
  18.3262386  41.0553894   2.4093626  17.0225029  40.3478317   2.3362579
 -29.4998226  -6.7837238 -30.5678082 -30.2766399  -6.9216828 -30.0284214
 -29.7858620  -5.9506602 -31.0655594 -36.5702858  -1.6667725 -11.5202227
 -36.9830742  -1.5414200 -10.6272869 -35.7483673  -2.1795640 -11.3118067
  -5.4327264  22.5390549 -26.5870686  -4.6441898  22.5337181 -27.1381512
  -5.1963725  22.1782894 -25.7459431 -41.9078255  -0.2401617  31.5906734
 -41.9860420  -1.0245932  30.9770107 -42.6529922  -0.3403778  32.1909943
 -32.1138725  31.7618561   4.0588970 -31.8896465  31.3960266   4.9676328
 -32.2356758  32.6607246   4.3187413   1.8436753  13.4947491  25.2549515
   0.9390856  13.6939621  25.4665470   2.3465910  13.9694824  25.9718552
   0.7538198   0.7973928  41.7609138   1.2305384   0.6106362  42.5447884
   0.8261355  -0.0455982  41.2416687 -38.0942230 -17.7188683 -11.4243336
 -38.0315475 -18.7107868 -11.1709833 -38.6619453 -17.8563957 -12.2129641
 -41.0260620 -12.4191971  25.9189625 -40.4618378 -11.8334856  26.4070454
 -40.8169403 -13.2799492  26.3185482 -27.8223343  24.1234379 -28.9959621
 -27.3112526  23.4964046 -29.4948025 -28.3478203  23.5775738 -28.3777180
  -0.2565551  -8.3025579  23.0824375  -1.0132214  -7.9018679  23.5516109
   0.1731331  -8.7728148  23.8147049  17.5201492 -28.8320446  33.8782463
  17.5458012 -28.0114155  33.3928795  18.3362579 -28.7479591  34.4343872
  -2.1769700  26.7008057  34.0544243  -3.1068134  26.4747181  34.1871643
  -1.7342925  25.8867950  33.9656677 -17.5765400  -6.8079705  -7.9310794
 -18.3849831  -7.3583956  -7.7090387 -18.0582199  -5.9722328  -8.2060575
 -15.0029955 -13.8427095  -4.7231407 -15.6834602 -13.2452364  -4.4072151
 -15.5079432 -14.6540337  -4.8375401  20.4682255 -29.6340542 -22.1325436
  19.7223473 -29.2288742 -21.6385841  21.2202740 -29.1793880 -21.7060337
   3.8227675 -15.0264368  -2.4691286   4.0282502 -15.6964626  -3.1627812
   2.8374028 -14.9377251  -2.6249018 -14.2538795 -33.7802124 -10.0862780
 -14.3591175 -32.8670120 -10.0398655 -14.5280447 -33.9655113 -11.0049601
   6.0652905  36.6267281  20.1465168   5.4319582  37.0609550  19.5468636
   6.7940788  37.2629929  20.2464867   1.7863613 -41.2238808   0.2447210
   1.4016100 -40.3880119   0.6288961   0.9181070 -41.5863571  -0.0926996
  -5.7267137  14.2889271  44.7869606  -6.1076374  14.5779266  43.9720726
  -4.8006420  14.5576668  44.6361465  -8.8058138  12.8547020  42.4524651
  -9.1444006  12.1606169  43.0600357  -9.4114447  13.6309233  42.6462059
   4.3015046 -21.9895306   8.5221148   4.7102933 -21.2616711   8.0315008
   3.9095476 -21.5487652   9.2496395 -36.1173515  16.6959820  11.4474907
 -36.7110023  17.2800407  10.9315462 -35.2988815  16.7344532  10.9295797
   0.0513551 -21.7221298   0.9011773   0.5392406 -22.5047035   0.4697695
   0.0586918 -22.0544701   1.8199738  20.1989994  -6.5789075 -40.3926201
  20.4292412  -5.6721334 -40.0444145  20.9512768  -6.7244310 -40.9862900
 -37.0238953  13.3346786  30.4477844 -36.0517883  13.1552362  30.2563553
 -37.1812134  13.7987595  29.5413818   1.6803772  40.8192253   2.1937487
   1.2025676  40.0681839   2.6460450   2.4657745  40.9335556   2.7732568
  -5.8910813  22.2034397  19.8163223  -6.3767433  22.5576687  20.6290607
  -6.5920048  21.5671120  19.5508747  21.2770615  36.8057556   3.0304868
  20.5323544  37.3116188   2.6079917  20.7442284  36.2176476   3.5954418
 -16.1696472   2.2712181  41.4975281 -15.8028746   3.0196350  40.8605385
 -16.7312527   1.8315454  40.8267288  12.5500994  19.6034470 -34.7870789
  11.9633799  18.8666515 -34.4518776  13.1660357  19.7137451 -34.1344872
  -3.9864986  -7.8970070  29.5500870  -4.4677243  -7.5772567  30.3886395
  -3.9096451  -8.8363218  29.8590603  34.1208496 -25.3625317 -23.4017105
  34.8448143 -25.2619724 -24.0507889  33.3820877 -24.9497890 -23.8932037
 -21.4340000 -33.7964973  -5.0940595 -21.8857002 -34.6109581  -4.8047853
 -21.8914680 -33.0950813  -4.4876676  19.8941498  -8.9336882  35.3693619
  19.4480362  -8.5921412  34.5978470  20.5183277  -9.5930490  34.9580994
   9.4660454  23.9769154 -23.9838696  10.1285524  23.8740253 -24.7058125
   9.6132164  23.1478367 -23.4964027 -20.6403809 -34.7294807  21.8216133
 -21.0814037 -34.6992683  20.9040737 -19.7112541 -34.7461510  21.4400463
 -16.1019669  15.3198519  42.2458763 -15.2801199  15.1124697  42.6807289
 -15.7306442  15.5866594  41.3501434 -14.4340096   4.5832491  43.0404739
 -14.3010836   5.2971492  42.3657761 -15.4242964   4.7806249  43.1830406
 -31.2159195  10.0862684  33.2666092 -31.4127731  11.0881739  33.2697334
 -31.6606846   9.8749342  32.4420013  21.8365192 -17.5291309 -25.2043839
  22.7862282 -17.3777695 -25.1257191  21.8128834 -18.3687267 -25.6976109
 -18.5804920  -8.0624886 -36.5112419 -19.4491348  -7.5688748 -36.6182938
 -18.0008144  -7.3879194 -36.8259583 -40.5398102  22.6308060 -25.6681824
 -40.8350220  22.2380466 -26.5868282 -39.7542953  22.0919342 -25.4849453
  43.6042290  10.1323633  23.2691975  42.7112198  10.4993477  23.2385445
  44.1149406  10.9128628  23.4936810 -40.4236450  21.2257690 -12.0801764
 -41.3874168  21.2462292 -12.3076897 -40.3827896  21.9744015 -11.4279737
  34.4911690  -4.7803183  19.9087162  34.5654221  -4.5172997  18.9346333
  34.6914024  -3.9270084  20.3434696   3.8793232 -26.2887058 -34.5805626
   4.5849366 -25.8158989 -35.0579681   3.7879806 -25.7111492 -33.7857132
  34.7887993  -4.5423555  17.2188244  34.3471069  -5.1997633  16.6586227
  34.5764732  -3.7452142  16.6278744 -24.3717022   4.3417196 -16.8767281
 -24.3825073   4.9624386 -17.6364460 -24.0182171   3.4887435 -17.3657494
  41.7118111 -31.0663490  11.0972023  41.0769386 -30.6105042  11.7064276
  42.0420341 -31.7970772  11.6720772  22.2925987 -18.6158619  27.1907730
  21.3576088 -18.3477631  27.1696129  22.2548828 -19.5956841  27.1887856
   7.2217612   3.2968428 -43.2711639   7.8918705   3.7393904 -43.9108200
   7.6296606   3.5732868 -42.3978920  -8.3576212 -13.3481874 -14.6127415
  -9.0836573 -13.9906998 -14.5178070  -7.6657329 -13.6513605 -13.9823170
 -33.9953308  20.3493366  24.0982952 -34.6254921  19.6589661  23.9358349
 -33.2080269  19.8405666  24.4114704 -15.7789478  23.1760082  23.0144444
 -16.3425655  22.4932156  23.3186245 -14.9255972  22.7257900  22.8212185
 -36.5011978 -16.3927040  -5.3030424 -36.0633926 -15.9305887  -6.0540619
 -36.0923386 -15.9302101  -4.5294108  -5.9509573  23.8935585 -41.5712776
  -6.2993445  24.7904129 -41.9097366  -5.5926032  23.6019173 -42.4158783
 -17.4016666 -13.9466572 -35.6914291 -18.1012020 -13.9638119 -36.3546486
 -17.5658722 -14.8594866 -35.2468758  32.2705040   1.9308528  34.1239891
  31.3056450   1.8805974  34.3273163  32.2984543   1.3549768  33.3135109
 -36.7169914  -4.7657394 -16.7757797 -36.8197746  -3.7641335 -16.4544201
 -37.6544495  -5.0171037 -16.8465748  32.6053658  11.8064203  24.9975624
  32.3781738  12.4958744  24.3348732  33.4852409  11.5397730  24.5656052
  19.4904842  12.1931629 -24.0050240  19.2131233  12.9243498 -23.4367447
  20.0507774  11.7271500 -23.3745022  32.9332008 -30.0076027  -3.1664722
  32.7209358 -30.1650810  -4.1117783  32.5841599 -29.1095581  -3.0073845
   7.1631465 -11.5958052 -37.5720024   7.6283708 -10.9059458 -37.0719948
   7.0516748 -12.2636967 -36.8774376  -6.8216472  -3.8058009 -28.4622498
  -6.6422005  -2.8306074 -28.7607098  -7.2988362  -4.0343008 -29.2697697
   7.1122866  22.3979664  -0.8999322   6.9898872  23.2584267  -0.4923919
   6.3232822  22.3043823  -1.4380560  28.0790539  31.7341270 -16.3101902
  27.2172070  32.0102463 -15.9675732  27.8072109  31.5272808 -17.2402210
 -20.0964737  15.2365694  28.4130878 -20.7953548  15.7818956  28.8653812
 -20.5038986  14.3310833  28.5489941  40.4140129 -10.2600441 -29.8529778
  39.4531937 -10.4169550 -30.0881214  40.2904320  -9.3608856 -29.4407005
 -32.9727020   3.5761132  15.2991066 -33.0290222   2.9790323  14.4756165
 -32.7668724   2.8608923  15.9333839 -20.0073185   7.6062751  36.4982567
 -20.5244942   7.1025028  37.0813179 -19.1138115   7.2348356  36.6152992
  36.9021416 -10.9614229 -26.2238483  37.8771782 -10.8048496 -26.2591362
  36.8322334 -11.1335115 -25.2738075  13.9236107 -25.8842125  22.8333778
  14.2883053 -25.4022312  22.0665112  13.2428665 -26.4756336  22.3500271
 -20.4225922 -12.2574720 -15.7609348 -19.5751781 -11.8053837 -15.4531345
 -20.8997574 -11.4722986 -16.0494404  12.2406368  45.5475540  11.8341007
  12.3011866  46.5054512  11.9794016  11.3549871  45.3468628  12.2084541
  20.2851391  15.9131670 -10.6076365  20.0668507  16.7641220 -10.1367722
  20.0375061  16.2775764 -11.5025034 -13.1536102 -36.0545349  21.2508202
 -13.1975622 -37.0792160  21.2599430 -12.1818733 -36.0617981  21.1130123
  42.6423149   0.9131905  23.1891327  43.2323341   0.9612017  23.9561329
  41.7823906   0.9900306  23.6567688  -7.7631683   0.8169729 -45.6535645
  -7.5696330  -0.0433939 -46.0932274  -7.8437557   0.5429893 -44.7110100
  -0.3279607  -2.3993461   8.6202927   0.2746336  -2.4114618   9.3865252
  -0.0748991  -1.5622317   8.2051029   5.4733286  -2.7421668 -16.4636612
   6.4026995  -2.8292017 -16.8560543   5.6175404  -1.8910336 -15.9463196
  -8.9525461  -4.6141071  44.5523911  -9.8206196  -4.5723615  43.9849510
  -9.0061169  -3.6497500  44.7816467 -29.9623203  11.6113110   0.3046675
 -30.9315624  11.7408314   0.3071007 -29.7599945  11.7533531   1.2423230
  36.0074120   1.3155065  11.3644648  36.2698898   0.9571649  10.5387983
  36.3943939   2.1846964  11.3649874 -23.7489567  -4.3377814 -10.3646736
 -24.2111702  -3.4768577 -10.1224165 -24.5137062  -4.9586391 -10.2171154
  14.9590216   5.6749878  10.5113144  15.8965654   5.5889254  10.1512041
  14.5173845   5.5487795   9.6587496 -25.0772152  32.0402489  -1.8406420
 -25.0798893  33.0065041  -1.8665862 -24.4676952  31.7713223  -2.5184052
  38.8149567  14.1584797 -29.6740322  38.5044212  13.3307676 -29.2159157
  37.9464569  14.4316282 -30.0422802  20.1780567  -5.4472184  48.8839188
  20.0890903  -5.0028458  48.0288696  21.1092606  -5.3439903  49.0477448
   6.6034598  19.9320526 -14.8720818   5.8675547  20.5155582 -15.1663246
   7.3264303  20.1142368 -15.4652205 -19.5390129  12.4938774 -27.1635551
 -19.9654331  11.5988073 -27.3102093 -19.5477676  12.5830822 -26.2090816
 -37.3918991  14.3778000  -0.1986287 -38.1151962  14.8941927  -0.5337180
 -36.5955772  14.9349089  -0.4264748   3.7408538  22.8319569 -13.9014502
   3.3227403  23.3573399 -13.2361689   4.2962608  22.2846470 -13.3295765
 -33.0135536  13.5341091  15.6097155 -33.1671028  14.5245018  15.4422092
 -32.1609306  13.4559822  15.2121868  27.5074081 -34.5877876  21.5916195
  27.9873619 -34.7664032  22.4548206  26.6515274 -35.0455284  21.7806587
  -9.6696053 -12.6424341  36.7985992 -10.0734768 -12.6572161  35.9126358
  -9.2446117 -11.7134342  36.8253632 -43.8624458   0.6330357  28.1715736
 -42.8922081   0.8905296  28.2898865 -44.2325439   1.0341867  28.9925766
  -7.8287096 -31.6531086 -22.1651306  -8.7980137 -31.7144222 -22.1215477
  -7.7223506 -30.8721561 -22.7335663 -25.9375973  27.3198605  21.2601395
 -26.5013409  26.5509434  21.4657860 -25.0694084  26.8650284  21.1796551
   0.2186467  14.5446339  33.2259254   0.9363239  14.0329008  32.7402382
   0.1136666  13.9122906  34.0030212 -17.9036942  37.8610611  19.4487305
 -16.9883118  37.5849571  19.6216869 -17.7448597  38.8151436  19.3623505
 -11.2155066  -1.4345422   3.5489097 -10.3237133  -1.2793396   3.0991199
 -11.5127659  -0.5070090   3.6265399  42.8289909 -28.4834785  13.5011444
  43.5609779 -29.0929947  13.2554598  43.3797455 -27.8841686  14.1227541
  36.6416702   7.5615644  -9.9461546  35.8763580   7.6151590 -10.5559702
  36.6954269   8.4884653  -9.6053772 -13.7311506  -6.9453382 -18.7951603
 -14.1528349  -7.1529508 -17.9495926 -12.8373146  -7.2997026 -18.6527729
 -18.9330692  23.0781822 -33.8935738 -19.4099751  22.2127666 -33.7077942
 -18.8056755  23.2754974 -32.9547539  14.3354540  44.8148575  17.0241280
  13.8744173  44.2554359  16.3357029  13.6842794  44.7979889  17.7196865
  -2.1578171  19.1820908  35.6285095  -2.0364578  20.0775986  35.9423447
  -1.3675960  19.1205845  35.0333939 -34.0999184 -14.5938416   9.6538773
 -34.0358810 -13.8134775  10.1787004 -34.4678307 -14.1373892   8.8511810
 -39.8284607   3.8567076  29.5907688 -39.2466774   4.0761166  30.3185787
 -39.9422989   2.9204884  29.6873894 -34.0349846   5.9896317 -12.3379793
 -33.0197754   5.9222093 -12.2747135 -34.0286751   6.7964854 -12.9457731
 -40.0678444   5.8307519  25.1358070 -39.9346466   5.7660174  26.0930119
 -40.6121445   6.5992837  25.0195122 -20.5083599  -7.9590621  -3.6396537
 -19.5785618  -7.5518160  -3.6413858 -20.8402176  -7.5335379  -4.4713335
   4.8134727  -0.9920117  12.5386448   4.8348832  -1.4997448  13.3716316
   4.8505325  -1.7605376  11.8981619  23.2304077  -4.5295429  33.1540184
  23.3600464  -5.4875712  33.3292770  22.7736931  -4.3602195  34.0035706
 -14.5998507  24.4579201  16.4060631 -14.9960728  24.1039371  17.2427349
 -14.9922562  23.7186966  15.7989082  26.7932491 -37.3657417  11.8828316
  27.1130257 -36.6701889  12.5462036  26.9141827 -36.7565231  11.1047392
 -33.2436829 -25.0511990  19.4662857 -32.5306854 -25.3404026  18.8490677
 -32.9391594 -24.1687641  19.7503700 -24.1509628  12.6644278  12.4266043
 -24.0128803  11.9753189  13.0772371 -24.1961327  12.1576462  11.6274214
  -5.6722527   5.6554437  27.8913879  -5.5568423   6.5636415  28.2580624
  -6.5591106   5.7235408  27.5103741   2.5626624 -25.5262756 -38.1071243
   2.8509254 -24.6302567 -38.2378578   2.1521299 -25.5052376 -37.2583809
 -10.6725101 -24.1247272  -5.2222300 -10.7742758 -24.6070690  -4.3639345
  -9.9227037 -23.5403214  -4.9868331   2.4778793  31.8001614  21.6897163
   1.9080032  31.6142654  20.8732300   3.0525053  32.5281372  21.2423496
 -32.2410736 -36.9240570 -11.5070257 -31.8116398 -36.1023064 -11.8002157
 -31.5232525 -37.4986191 -11.3597765   0.4316823  -1.6310115  32.5299454
  -0.2758755  -2.3373044  32.3653030   0.6156344  -1.7375245  33.5116844
  16.6202068  46.5963326   4.0301924  16.8098755  45.6751785   4.1696835
  16.9971581  46.7231445   3.1462288  31.3791237 -25.9809856   0.1862529
  31.8077164 -26.7767944  -0.1994182  31.2874565 -25.3871002  -0.5339475
 -15.4981756  23.5317326 -44.2452507 -15.6477556  24.2794495 -43.6156845
 -14.9451170  22.9260349 -43.7044220 -17.2859077  13.1173573 -28.6385803
 -18.2294979  13.1908569 -28.2985020 -16.9529400  12.7522411 -27.7403259
 -12.1870499  18.9140949  28.4742756 -13.2077217  18.9594707  28.3509407
 -11.9509630  19.6940823  27.9316254   7.4052935   3.5033133   6.3688235
   6.8782988   2.7726154   6.7603045   7.9623694   3.0297718   5.7503872
 -41.1177979  20.4621773  21.2509003 -40.3264389  20.0942039  20.7525902
 -40.6785851  20.7680283  22.0720558   0.2541838 -25.4146404  37.9219818
   0.1469197 -26.3966885  37.7569008   1.1870537 -25.3313847  37.6415329
 -15.0999041 -16.5690212   6.8339386 -14.9875555 -16.4638042   5.8135581
 -14.8087511 -17.4712467   6.9548063 -15.1903887  10.2243128 -22.0507393
 -15.0820122   9.8435993 -21.1564693 -14.5409966  10.9708986 -21.9628143
 -29.8138218 -31.6882477  -0.2849765 -29.3720016 -31.5250053   0.5959180
 -30.1546707 -32.6003838  -0.1470394 -18.7255783  -1.7209035 -20.2476006
 -19.1193542  -1.6815981 -19.3279228 -18.6607838  -2.7694747 -20.2727718
  -3.1885486  -4.2546573  18.5643921  -3.6774266  -4.6527190  19.2613373
  -2.5617869  -3.6964211  19.0276718 -22.8630962  25.2921257  -4.2944255
 -22.4254284  25.6867294  -3.5111065 -23.3411255  24.5739288  -3.8269632
  -8.2496681  13.6085072 -48.2652550  -7.8913479  12.8271513 -48.6711006
  -8.2710209  14.3621178 -48.8855858 -12.4210882 -21.5467453  -8.8149357
 -11.9575605 -22.1121407  -9.4507751 -11.6771393 -21.4954243  -8.1367273
 -29.8254795 -25.3094521 -17.7935085 -30.2869492 -25.7332745 -18.5847206
 -29.0251694 -25.0224113 -18.2548695  19.3834305  22.4870319  20.8048401
  20.3423347  22.4869766  21.0854988  18.9200516  22.5161572  21.7105255
  24.5815697 -13.7652693  -7.5741520  24.1509209 -13.9879904  -8.4276314
  23.8729134 -13.2619371  -7.1069722   0.6740165  32.0448456 -28.5594711
   1.1851163  31.4583511 -28.0246372  -0.2593701  31.8221092 -28.2316799
   8.4135170 -27.0513363 -17.2316189   8.6931362 -27.3401699 -18.1429749
   7.7233543 -26.4541721 -17.4731655  27.0896587 -12.5984068 -30.6392155
  27.9523830 -12.7148533 -30.1707993  26.7040653 -13.5147562 -30.4858627
   6.7279577  -8.6757431  14.1227121   6.4979634  -9.5863991  13.9537849
   5.8421888  -8.2767973  14.2717571  -8.2353497  28.6605892 -22.3965225
  -7.3070841  29.0426617 -22.5291481  -8.6375828  29.1371708 -23.1692448
   4.1133461   1.0188074  36.1725807   3.6835382   1.0771611  35.2829895
   4.9537888   1.4874189  36.0259857  41.2340469  -5.5077353  21.7954922
  41.2801476  -5.1750073  22.7579021  42.0943069  -5.2098093  21.4783840
   6.3318877 -26.5363960 -13.8692636   6.3993888 -27.4364491 -14.2940416
   6.3996143 -26.8311119 -12.8794413  38.6343117  -7.0547061 -14.9075136
  37.8718071  -6.4143300 -14.6871185  38.1555672  -7.4490328 -15.6868382
  22.7519474  39.5784988 -17.5618706  22.3094273  40.1188240 -16.8868065
  23.4961815  39.2366638 -17.0345669  19.2268715 -17.7792797  42.9801140
  18.6937675 -18.4295063  42.5407944  18.8031292 -16.9225979  42.8199768
   6.8148432   1.1346824  21.1631355   6.9678912   1.2264179  20.2040596
   7.7294073   0.7870880  21.3773994 -13.2014484  31.1965103  24.1725101
 -13.8048592  31.7201004  24.7719631 -13.8630257  30.6275368  23.7005024
 -25.7841473  11.1612139  42.0070076 -26.5636044  11.5575962  42.3632889
 -25.2448349  11.9339828  41.6826248  -7.4360051  30.2658730  -6.9911571
  -7.6496110  30.0566578  -7.9401245  -8.2345743  30.0071049  -6.5351734
 -20.6963139  20.7462196  17.0252495 -20.8921452  19.8355637  16.7281151
 -21.5235500  20.9921131  17.4197655   7.2772236   8.1356163  -4.0318160
   7.7729506   8.9788246  -4.2112298   6.4726171   8.2154055  -4.4199748
   5.3963718 -16.6060658  -6.9448695   5.0920806 -16.1231213  -7.7430754
   5.2308035 -17.5171871  -7.2304950  26.6732960 -24.0414867  22.6996212
  26.9934616 -24.8666534  22.3348122  26.7475815 -23.3813572  21.9765720
  -7.6643596 -42.8986511  20.8286934  -7.6538725 -43.4220009  21.6859016
  -7.2187362 -42.0960770  21.2362080  -9.3652105 -17.3501263   1.2252057
  -9.5569410 -16.4045563   1.1628436  -9.6545973 -17.5388794   2.1655457
  29.7473831 -28.6765347  29.6445351  29.2665787 -28.8204670  28.8403473
  29.4886189 -29.5359135  30.0817127 -17.6956043 -14.0275393  23.8079910
 -18.1644020 -14.7802706  24.2145233 -17.4391232 -14.3711233  22.9746208
  26.0977383  36.9220963 -13.8011837  25.6442318  36.3271561 -14.4383421
  26.9926720  36.8186378 -14.0451393  37.6820450  28.4189529  -6.8723187
  37.7197495  28.5995998  -5.8854785  36.9532967  27.8103161  -6.8932285
  -0.3307760  20.7463779  -7.5460119  -0.8775863  21.2795029  -6.9936333
  -0.9381031  20.1164303  -7.9797111  26.5672112  27.4882050 -13.7937975
  27.3130722  27.4803677 -14.4029560  26.2635880  28.4030876 -13.8148785
  27.4341297 -21.2934933 -29.4900436  26.5567932 -21.5510864 -29.2722950
  27.9791298 -22.1305828 -29.5279522   4.6458259  15.3443575  41.2101097
   4.7301526  14.7081194  40.4451294   5.5994129  15.6715193  41.2400970
 -36.4776688   7.9942689 -12.3167553 -36.0261002   7.4168224 -11.6866207
 -35.7063904   8.2505484 -12.8781796 -38.1581116  12.4000025 -24.9557800
 -37.2922401  12.3516312 -24.5188961 -38.7052650  11.8832130 -24.4216614
  18.3344536 -13.9839764 -11.4055586  17.9105740 -13.9296360 -10.4946489
  18.5286160 -13.0387363 -11.5448332  35.7835159  21.2393055  25.4187775
  35.4547310  20.3136444  25.5780029  35.6628151  21.5480747  26.3121758
  28.8169537  14.4025612  25.0231514  29.6791573  14.7713366  25.3313923
  28.2969131  14.4305449  25.8989296   9.3878126   2.3575611  39.7129478
   9.7299232   1.8063450  40.4623680   9.4163857   3.2508502  40.1614990
 -14.2948389   5.0595365 -37.6347847 -14.6447449   4.3756185 -38.2131882
 -14.9035892   5.8104415 -37.8463287   2.8723383 -39.2395706  -7.4945145
   3.4685519 -39.9736862  -7.1727276   3.5116711 -38.6005402  -7.8289614
   3.5237606  36.5882988  -3.6334596   4.0885777  37.3427620  -3.9053903
   2.9866936  36.3881187  -4.4171972 -32.4652672 -27.5553265 -17.0819817
 -31.6633892 -28.1013031 -16.9308605 -32.4747505 -27.4387703 -18.0562363
  -9.5402126 -40.8562012   5.2131934  -9.6345844 -39.9055290   5.5770578
  -8.7873764 -41.1091576   5.7589130   9.7552595   3.1383944 -16.3259106
   9.9465141   3.3273985 -15.4249897  10.6152773   3.1037083 -16.7878666
  25.4978313  37.0287781  18.1033344  25.7124901  37.1940727  17.1396580
  25.2222481  36.0682716  18.0352859  11.7154894 -18.0951385  19.6589546
  11.5417185 -19.0546570  19.8140259  10.8225002 -17.7367611  19.8044186
 -17.0171700 -37.6953125  14.7431202 -17.3447876 -37.4333878  15.6594810
 -16.4756565 -38.4763718  15.0248194   9.8424988 -33.6639557  20.7281551
  10.2882948 -34.3854599  20.2167873   9.0847111 -33.5468483  20.2416992
 -10.3508749 -40.5559845  -8.1897917  -9.8397484 -41.0496101  -7.5730882
 -11.1761541 -41.1542244  -8.2712851  33.5861816  15.8245745  28.6438675
  33.3140106  16.2562389  29.4631577  32.8434105  15.2454824  28.4619007
  33.6672859  -6.9881563  -5.6548104  33.4993248  -7.4084840  -6.4953718
  34.4844780  -6.4246736  -5.8679895 -16.9343529  34.8683586  19.5052757
 -16.3003578  35.5875893  19.7572269 -17.0991592  34.5240707  20.4164791
  -6.9736390 -24.9192276   2.3926554  -7.4267173 -24.7124958   1.5434256
  -6.0897565 -24.6170635   2.2918599 -14.9735937 -33.2062569  22.7744122
 -14.5573912 -33.1103363  23.6355228 -15.3678522 -32.2338181  22.7626572
  19.4898357 -16.3596134 -27.1496716  20.3092594 -16.8126755 -27.1017513
  19.1536732 -16.5447502 -26.2267761  -1.2123280 -42.3804054 -24.9083900
  -1.8481280 -42.8040466 -25.5073757  -1.3208772 -42.9394035 -24.1321449
 -31.8814621  30.5421486 -20.2473869 -32.7820587  30.1510487 -20.1043625
 -31.4020691  29.6909122 -20.4550610 -17.4327469   7.7148890  15.1277447
 -16.6802330   8.4073305  15.0797834 -18.1913643   8.4066572  15.0749807
  34.3915405 -14.0562935 -16.8522892  34.0221024 -13.3494568 -17.4754925
  34.8567505 -13.4007092 -16.2408714  16.6120033   2.0963748  27.9583893
  16.6213207   3.0505340  28.0913124  17.6193523   1.9699774  27.8380222
 -34.9045105  -8.4850960  -5.3169117 -34.9109726  -7.5432963  -5.3563924
 -35.3915291  -8.6512537  -4.4834676  24.5861969  29.7576752 -15.8546782
  25.2914963  29.0765991 -16.0949841  23.7876015  29.1891670 -15.9564409
  -2.2198343 -19.8056049  17.5505409  -2.0042398 -20.7413387  17.4003468
  -3.2398691 -19.9169579  17.4969864  23.3041153 -14.5245991 -44.7206230
  22.9868908 -13.6563349 -45.0134354  22.5097942 -15.1064405 -44.9574165
   3.5244269 -11.3096123  -1.7557354   3.2601743 -11.6391497  -2.6765337
   2.6603875 -11.1390533  -1.3743168 -32.3087616   1.2878613 -37.4222527
 -31.9388275   1.7905143 -36.6658859 -33.1094170   0.9956127 -37.0316238
 -19.1498833  -9.4418297  -1.8314968 -18.8175602  -8.5465364  -1.6352152
 -19.8831196  -9.1881914  -2.4369829  39.4892502  16.0067234 -11.5782251
  39.2087555  15.3636293 -12.3033247  39.5375099  15.4218779 -10.8292971
 -40.6536865  -6.6389198   5.4678135 -40.3560562  -5.8764620   6.0496154
 -39.7705803  -7.0150332   5.2626891 -32.9112511   6.8029962   5.0668554
 -33.3526115   7.4170380   4.3998713 -32.9953003   5.9578238   4.5984612
 -14.1182995  -5.5821023  15.4834480 -13.7256470  -6.3635783  14.9806614
 -15.0076303  -5.6364665  15.3051882  32.4960403   9.7002649  12.4454079
  33.2221375  10.3116856  12.2367535  32.6003799   9.0559120  11.6599188
 -39.8764191 -24.5483284   3.2266715 -39.4723969 -24.7320309   2.3021677
 -39.0135307 -24.6280308   3.7677441  21.1643333 -17.1708279 -29.3116665
  21.2076931 -17.8061314 -30.0818310  20.2998848 -16.7730808 -29.5235691
  36.6868553 -17.6361160  17.2558384  37.1595154 -18.3832397  17.6981468
  37.5210915 -17.2086372  16.8087158 -26.8740997  31.4690056 -33.0546989
 -25.8984222  31.3179646 -32.9814949 -27.0898266  30.7136669 -32.3773270
 -19.9851952  34.9657669 -34.3390961 -19.3046703  34.9675713 -35.0753822
 -19.5418186  34.3130417 -33.7243347 -14.8449202 -21.4876614  13.9549379
 -15.0190945 -22.2848930  14.5248537 -15.2153091 -21.7851238  13.1350212
  14.6020985  -5.7209635  16.2564926  15.2582216  -5.8846550  16.9073334
  14.9291515  -6.2844429  15.5019522 -36.6738129 -19.0525723  19.8683186
 -35.9928017 -18.9106483  20.6052856 -36.1856117 -18.5145302  19.1853218
   9.5348959   6.9007707  20.3465137  10.4017096   6.5842671  20.7156715
   9.2350874   6.1094766  19.8555164 -22.5383606 -42.8402977 -12.6386080
 -22.6753349 -42.0023384 -12.1556072 -21.5453377 -42.8320580 -12.7366276
  -0.9499774  -5.5110302 -11.0670671  -0.5102974  -5.9255013 -11.8500519
  -0.1774590  -5.3435388 -10.4674654  21.6549263  -7.7514606   3.3422756
  20.9985332  -7.0977521   3.0938475  21.3220539  -8.5492582   2.8001854
  23.1985664  27.3739815   7.1388998  23.1046219  27.6800537   8.0507536
  22.5789757  27.9270306   6.7207384   7.9707770  47.1776886  11.9812403
   7.4923806  47.4784431  12.7413673   8.4587965  47.9623566  11.7079382
 -10.3039713   4.0899296  47.9977951 -10.8240280   4.8804913  47.6748009
  -9.4509315   4.4997773  48.2218208 -34.7425919  21.5093880 -22.5691452
 -35.6308441  21.8651543 -22.7338562 -34.4371414  22.2115669 -21.9056854
 -20.9183788 -31.8456554  -8.1928596 -21.6044312 -32.1999435  -8.8394575
 -20.2651978 -31.4369373  -8.7969046 -35.6347694   3.7984605 -41.7350883
 -35.3723297   2.9268501 -42.1864700 -35.3881493   3.6011720 -40.8673782
 -34.0968513  12.5400925 -32.0860672 -33.7914772  13.2180090 -32.8118591
 -34.4380264  11.8432426 -32.7010117  20.1464939 -12.8030834 -25.7197380
  19.9123783 -13.0844641 -26.6492748  19.6029110 -13.5151777 -25.2353477
  15.3140898 -18.4024200 -17.3458290  15.4107265 -18.8052864 -16.4542809
  15.7154646 -19.0759850 -17.8853111 -18.3376961 -29.9885311   8.3482122
 -18.0509701 -29.3810177   7.6480684 -18.6006413 -30.7881756   7.9324036
  14.4701023  10.2546062 -26.5259552  14.0461578   9.5698156 -27.1426754
  14.2098560  11.0665102 -26.9854355  25.6976719   5.5338640  38.3401604
  26.2283611   6.0412965  37.6518288  26.3868771   4.9726496  38.6992302
  37.6069221 -28.4224911   0.8944074  37.6208076 -29.0023289   1.7090565
  38.5276566 -28.2769337   0.7129789  18.2724152  11.7913094 -11.7282991
  19.1571579  11.5512991 -11.5067091  18.2350674  12.7513704 -11.5434589
 -32.9386024  -7.8326960 -30.8446236 -33.6249504  -8.1365805 -30.2240124
 -33.5577774  -7.3527699 -31.4569874  33.6434860 -24.7890339  30.2912426
  32.7979431 -24.6452980  30.8073273  33.7241364 -23.9662151  29.8362846
   4.7564788  -4.5431199  46.8024368   3.8449905  -4.8662767  46.9032478
   4.4961009  -3.5726173  46.6947517  17.4654808 -23.6287689 -25.7644272
  16.5800838 -23.3918743 -26.1142712  17.9956779 -23.5142803 -26.5845604
   3.2581255  35.1928749   2.4987714   2.6629651  34.6786041   3.1765373
   4.1160874  35.1097260   3.0216639 -28.5242691 -13.5819387  24.0226307
 -27.5445881 -13.3855915  24.1466999 -28.8656216 -12.7920055  23.5684624
  22.7736282 -33.2161064  -9.7161951  23.5376740 -33.8192062  -9.6196051
  23.1690483 -32.3858147  -9.2776604   8.6007767  32.9809608 -21.5158424
   8.4449949  32.3916855 -22.2893143   7.9753027  33.6951561 -21.8757725
 -31.9212875  26.9476852  16.1557045 -31.0401363  27.3991528  16.2758980
 -31.6765766  26.0069847  16.3678570  -6.9975600 -10.6681862  -0.1833413
  -6.4740734 -11.2013235   0.4520902  -7.0600672 -11.2809782  -0.9546521
  15.4769306   3.1866090   6.9351573  16.2112961   2.7375224   7.4145727
  16.0272007   3.8029420   6.3671207 -37.5074196 -22.6624355  -7.2277641
 -36.7781296 -22.9656467  -7.8639121 -37.2209663 -23.1084805  -6.3934665
  -5.3473411  41.4364204  -4.1833367  -4.8405910  41.9027557  -3.5104699
  -6.0301824  40.9684792  -3.6796551  -1.1236008 -12.3958797  18.7426090
  -0.3322181 -12.8886099  18.4085388  -1.0276982 -12.4541225  19.7078934
 -34.3070755   8.5613041 -13.8310747 -33.8819580   8.3402166 -14.6888323
 -33.6037941   9.1063204 -13.3534174  27.2486362  -8.6863213  24.5110855
  26.6771412  -9.4625559  24.5892677  27.0107384  -8.0882988  25.2147827
  14.1801901  28.9386959 -18.8061409  13.7439270  29.6176929 -19.3197823
  13.6228876  28.9464474 -18.0788536 -36.9769859  23.2921276 -22.9519615
 -36.9358521  23.8131027 -22.1073170 -36.8868752  24.0334625 -23.6070747
  14.1106396 -30.4429874 -18.9043407  13.9767075 -29.4979095 -18.8623943
  13.6452751 -30.7006702 -19.6757164 -33.2405357  -4.4602509 -31.1758194
 -33.5005836  -4.8268476 -30.2823715 -34.0138512  -4.8008766 -31.6743584
  -5.8955631   3.2150714 -16.3717804  -6.6926618   3.3236294 -16.8734341
  -5.1764474   3.3396509 -16.9687119  30.1113834 -25.1089745  -8.0810070
  30.3709927 -24.5694180  -8.8421707  29.2554302 -25.4708004  -8.3568716
  43.0174904  13.9019823  17.2422752  42.8014565  13.2926693  16.5097065
  42.6908760  13.4122410  18.0185204  18.6387367 -32.7394638  -0.0206866
  19.4224625 -32.5227432  -0.5076267  18.9712524 -33.4885979   0.5398385
   3.3919828 -27.3621426 -23.7564278   4.3491111 -27.2033482 -23.7449512
   3.1734858 -27.0242825 -22.8009205  38.6401367  19.6252060  26.5113449
  39.6413765  19.4473610  26.5064373  38.5323105  19.8143063  27.4540710
   7.6922264 -26.9837704 -37.7990036   7.2571902 -27.6860504 -37.3124046
   7.2714000 -27.1007118 -38.7064095  25.7042599  42.0465660  -2.1120794
  24.8306637  41.7503090  -1.7449903  26.2994995  41.4696159  -1.4828421
 -18.9802132  20.8161526  27.8975201 -19.8298035  21.2714825  27.7763939
 -18.4400158  21.2146587  27.1665173  44.6929016   6.4289818  24.8311501
  44.3953056   5.7383385  25.5138874  43.8690605   6.8062840  24.5663738
  29.8807278  14.2787590  11.2990999  30.3182831  14.0714846  12.1022186
  30.5471153  14.8658199  10.8574066  35.6477814  12.9428120   5.7590742
  36.5720749  13.0894995   5.4284472  35.8603172  12.9869537   6.7224240
 -18.3425579  -6.3137784  37.3393288 -17.7792358  -5.8489499  36.6852188
 -19.2369480  -5.9743237  36.9210815 -31.7298546  -1.6142967  -1.5677458
 -31.4067364  -1.1744674  -0.7846852 -31.6102581  -2.5861576  -1.2914754
  26.6548176 -17.4609776 -22.3479061  26.6132832 -18.0954380 -23.1455631
  26.7530899 -16.6324234 -22.8725166  -2.8440840 -27.9264698  35.0696945
  -2.6148779 -28.8000526  34.6523743  -3.8580105 -27.9440117  34.8832588
 -43.6436653 -24.3854771   3.7426915 -44.5470009 -24.7096252   3.6961064
 -43.7856522 -23.4488335   3.9712806 -21.3329620  30.0931015  28.4966393
 -21.8447342  29.8299999  27.6297951 -20.5266857  29.6217384  28.2979679
 -23.0367050  -1.0940024 -29.4521294 -22.4174328  -0.9442633 -28.6529083
 -23.4355335  -1.9987626 -29.1286678 -13.2681608 -19.3003445   2.2392056
 -12.4843760 -19.0866890   1.6909249 -13.1904497 -20.2632351   2.2934761
  -2.0332203 -25.5787334 -31.6193218  -2.6003282 -24.7556095 -31.6428013
  -2.5805080 -26.2892170 -31.9713631 -10.3869390  39.9138107 -23.7672081
 -10.7315407  38.9864388 -23.7392712 -10.3140306  40.1452789 -22.8506012
   9.3054237 -29.8399220  28.8650074   9.9479589 -30.3522453  29.3920460
   9.2991858 -28.9900284  29.2952728  20.3280487  -5.3221874 -44.5143356
  20.3062439  -4.7481966 -45.3360672  19.5615501  -4.8738389 -44.0621567
   3.0135317  -7.9892225 -45.7957344   3.3752098  -7.0835261 -45.9703903
   2.0168304  -7.7438760 -45.7748566 -19.2638302  10.0004663  50.3607178
 -19.6101284   9.7972422  49.5024681 -18.3236160  10.0999117  50.1235199
  20.8866158   5.7342815 -33.7673988  21.3129539   6.5925622 -33.5759583
  20.2093296   5.6654944 -33.1004257  37.6488762 -19.8946877  -7.7581334
  36.9782562 -20.6124420  -7.5821090  38.2432022 -20.3202438  -8.4059496
 -31.1648769  21.9300861 -19.5409508 -30.4738884  22.4739342 -20.0221405
 -30.7975063  21.0455112 -19.6555805 -22.7935028 -20.3492870  31.0372753
 -23.6129284 -20.6325779  31.4999733 -22.5372772 -21.2278118  30.6557484
  13.2307320 -20.3223019  -9.5714607  13.7830620 -20.0952454 -10.3082542
  12.3155584 -20.3094845  -9.9591751  -1.6952056   8.3098879  27.4816761
  -1.7846963   9.2511606  27.7628651  -1.3173969   7.9530406  28.3556690
 -26.1342735  19.3654423  23.2390919 -26.5107098  19.4237003  24.1404076
 -25.2241020  19.0576897  23.4822407  -1.2630173  15.9746084 -10.6869812
  -1.9104763  15.7314348 -11.3394203  -1.6076323  15.4801779  -9.8935471
   1.0137023  -3.0788586  50.6061516   0.1931893  -2.8228664  50.0785942
   0.6083542  -3.1424160  51.4671288 -16.9757175   5.5559855  43.6680717
 -16.9517994   6.3805895  43.1722298 -17.2380638   5.9349241  44.5399780
 -29.7827168  18.0331249 -35.8397255 -30.0205460  18.6865864 -35.1222420
 -28.8500233  18.3868217 -35.9761162 -10.1639509   0.3902557  49.9700432
 -10.6435328  -0.3132305  49.4151497  -9.3710060   0.4416740  49.4103432
  33.6614914 -30.7704582   4.4675436  34.2040367 -30.5302887   3.6537440
  33.9115486 -31.7214241   4.5547538  -1.0385543  -1.5442121 -22.1000099
  -1.8406016  -2.1455541 -22.0658875  -1.0788064  -1.3058141 -23.0723324
 -15.2831020  -7.8963709  34.3626404 -15.7933693  -7.1505127  33.9681129
 -14.5360565  -7.8951807  33.7644730 -15.1088467  -4.2244034  -2.7159119
 -15.6363249  -3.4349475  -2.6404767 -15.4046726  -4.7334361  -1.8828943
   3.0539308  22.6148567  14.9378443   4.0233603  22.4690704  14.9632130
   3.0621235  23.5240936  14.5005312 -29.7642746  26.2241192 -17.4390774
 -29.5868855  27.1607170 -17.8002510 -29.4660397  26.4105663 -16.5058880
   8.7608423  24.5904331  13.2355623   8.1966791  25.3524628  13.4900522
   8.6249962  24.6359768  12.2739344 -22.2555923 -25.7997704  16.2552738
 -22.0497284 -26.1578484  15.3536673 -22.8154869 -26.5385761  16.6330719
 -30.5406857 -14.4253130  16.6202888 -29.8216610 -14.7459602  16.0410652
 -31.1586895 -15.1494303  16.6207409  16.8271294 -18.5724812  -1.0441929
  17.3739548 -17.7586117  -0.8616776  17.3195667 -19.2153339  -0.5050117
 -39.6267357   8.0006323  -0.0224569 -38.7430878   7.9039927  -0.4094805
 -39.5986290   8.9577656   0.2183728 -13.5777416 -45.6552200   9.8011055
 -14.2798843 -45.1191635   9.3704042 -12.8000097 -45.1204224   9.4308720
 -11.3912964 -15.0841942 -20.1296177 -11.9385557 -14.2766571 -19.9555912
 -11.5925608 -15.1753073 -21.1012135  -2.7861505  -6.6795964  13.8067961
  -2.5523925  -6.5173936  14.7482929  -1.9124599  -6.7537088  13.3621798
 -15.2643213 -14.2884445 -24.4999962 -16.1253567 -14.8399391 -24.5166664
 -15.5295715 -13.6628246 -25.2089996  -6.5596027 -38.0821304  18.5010624
  -6.3495302 -37.5797501  19.3589306  -5.7918215 -37.8421783  17.9767494
 -24.6865101  13.4926252 -25.4638233 -24.2123585  13.1042185 -24.6623611
 -25.4941044  12.9378071 -25.5527134  29.2380085  38.7017632 -13.7459946
  28.6794682  38.9764938 -14.4735746  29.7315178  37.9184875 -14.1211090
  28.7876968  13.0950193  18.0795918  29.1546288  13.7400007  17.3941822
  27.8151951  13.1114035  17.8655338  33.7410545  19.4782600  -8.9500303
  34.2825661  19.9060669  -9.6200762  34.3479042  18.8393307  -8.5585804
  18.7389278  15.4583340  23.6359043  18.5104256  15.8739853  24.4940128
  17.9269142  15.6453161  23.0976639   3.0471020 -12.5373726  16.5733509
   3.2510450 -13.0844545  15.7439632   2.6011615 -11.8077087  16.0166988
 -25.2507133  -3.0350280 -19.1707878 -25.1524239  -4.0153279 -19.1423931
 -25.6329861  -2.9573820 -20.0702477  -8.5777130 -10.1941366 -43.2109604
  -8.2083902 -10.9231195 -43.7011337  -8.1437597  -9.4074001 -43.6161957
   1.7808447   4.0001302  31.6161213   2.6877775   4.0369940  31.9705238
   1.2407697   4.4104877  32.2512856  19.5063667  28.0323524 -16.9794464
  19.0025539  27.4671745 -16.3938007  19.2351665  27.5822144 -17.8545456
  -3.5665236  28.4208603 -20.5661869  -3.9449141  28.7403069 -19.7197609
  -3.5963907  29.2664948 -21.0731125 -41.4996758 -22.4958248  -3.7794781
 -42.3041229 -22.1236897  -4.0860949 -40.8467255 -21.7868176  -4.0090909
   0.7894735  17.6255531   6.3446884   0.7613856  18.1602859   7.1082397
   0.8316709  16.7095203   6.7393045 -38.2495384   4.4532714 -21.8056641
 -39.0072250   4.5216017 -21.2525902 -38.5633583   3.7660465 -22.4350624
  -4.7958126   6.5494885 -35.7339973  -4.3495035   7.3647585 -35.9276733
  -4.1705437   5.8523746 -36.0301247 -27.3772488  -9.6924715 -14.0906086
 -26.4593964 -10.0089397 -14.3367348 -27.8532753 -10.5866632 -14.2360334
 -29.5961590  22.6871338  -5.2791491 -30.5467052  22.7617397  -5.2058821
 -29.4951077  21.7434750  -5.4141579   7.9381185 -19.2745533 -32.6996727
   6.9894614 -19.4714279 -32.6384811   7.9110770 -18.5845509 -33.4386101
  -1.3442301 -24.2539158   9.3021278  -1.9270256 -23.8455105   8.6653318
  -0.4795533 -23.9033279   9.0261822  -3.8536112 -36.4497414  16.9753799
  -4.0116935 -35.4244499  17.0677509  -3.6787438 -36.6450272  17.9304142
 -36.9349747  22.1632175  10.5913973 -37.3326378  21.3144360  10.4482899
 -37.3486252  22.6504669   9.8234377  31.4021950 -13.9811335   5.7279458
  31.8116646 -14.8773441   5.7212853  30.7065811 -14.1648073   6.4496789
   2.0321341  38.3370819 -18.0972786   2.7530141  38.6376991 -17.4923229
   1.5777012  39.1941948 -18.2870083  11.4555721 -21.7356625 -23.6500168
  11.2812366 -22.4671936 -22.9974518  11.3264084 -22.3202496 -24.4897156
  33.9301834  20.4167595  20.8867626  32.9661293  20.3253403  20.8664112
  34.1058655  21.3188648  20.7687874 -26.5110950   2.7374322   9.2407389
 -26.8280392   3.0210085  10.1014042 -26.6736145   3.5455999   8.7184896
  -3.8395813   0.9913318 -38.7428627  -3.1349385   0.4396277 -38.3985596
  -3.7696595   0.7579073 -39.6918983  -7.9823565 -23.6063881 -17.2126675
  -7.0144887 -23.5050774 -17.1445656  -8.1846380 -22.8842411 -17.8199081
 -10.2565145  36.7513733 -18.0790443 -10.0486355  35.8137245 -17.9216213
 -11.0705605  36.7260895 -18.5602951 -40.3071518 -12.4753647   5.9906044
 -41.1244850 -11.9541912   6.0620594 -40.4719620 -12.7949314   5.0737295
 -13.8758173  13.1389256 -14.9851904 -13.1869659  13.4476271 -14.3421478
 -13.5596161  12.2020893 -15.1204033  -5.2199121  31.4651985  -1.5218230
  -4.9010935  31.4774437  -0.6003099  -4.3810668  31.6518459  -2.0417356
  13.4201069 -36.6844025   0.4506198  13.8674974 -35.9224739   0.0063078
  13.1995249 -37.2525101  -0.3014424 -34.9939766  -6.4591217 -32.1744537
 -35.8368912  -6.6969337 -31.8113289 -35.2263756  -5.7136912 -32.8214989
  26.0420456 -21.2838192 -20.2974834  26.0226688 -22.2534142 -20.4334774
  25.2263641 -21.1603184 -19.7700729   5.8531446 -14.9722233  13.4887304
   5.2988482 -15.6800098  13.8940601   6.6365528 -14.9481192  14.0979424
 -20.5328217 -14.0890331   2.1854949 -20.2538204 -13.2024288   1.8960079
 -20.6269627 -13.8752890   3.1715858 -14.5666313   3.4545512  -9.2611275
 -13.7875414   2.9770603  -8.9145021 -14.9946089   3.6471796  -8.3383636
  -0.6424639   9.9236774  22.0730457  -0.0102171  10.6145163  22.2481594
  -1.0599356   9.7935848  22.9620934 -43.5376511  24.9345779  20.3052292
 -44.4786720  24.9479313  20.6090069 -43.3784866  25.9428921  20.4085922
  -9.8703642 -11.1037598  33.1810875 -10.4432106 -10.5876923  33.8981209
  -9.3183603 -10.3002996  32.9571800   8.3817978  17.6108265 -30.3019257
   8.4091635  17.1741791 -29.4369411   7.4430981  17.9081345 -30.4018688
 -25.1138802  15.7571869  42.5882759 -24.7161579  16.5305920  42.1441193
 -25.8895340  16.2810535  42.9397850 -32.8614540  -4.6984596  -9.2056694
 -33.2697563  -5.4667702  -8.6227636 -32.7089386  -4.1402440  -8.4219398
 -34.4910240  26.5036068 -28.4610271 -33.7167740  26.1875172 -27.9460449
 -33.9803085  27.0850067 -29.1139870  11.9105844  16.8493595   2.4210844
  12.8168173  16.8777771   2.0620759  11.8231783  15.8394995   2.5144777
  24.6998901 -14.3972063  39.9398308  25.4348869 -13.8592510  40.3204651
  23.9193306 -13.9550619  40.3779945 -25.0348587 -19.5856075 -14.2434940
 -25.0545406 -20.3842850 -13.7008591 -24.3724174 -19.8064499 -14.9503393
 -36.4196358 -36.0662308  -0.4388559 -35.9123421 -36.3005829  -1.2110909
 -36.1625443 -36.8883896   0.0382334  28.7869549  -4.2426715 -25.1308403
  28.7787685  -5.2326298 -25.1337967  27.9932919  -4.1805897 -25.7789307
  16.4195328 -10.5171423 -45.3401451  17.2391300 -10.3211927 -44.8440666
  16.2853966 -11.4865932 -45.1388588  35.3061943  -1.7254571  -7.6153889
  34.5893822  -2.3079469  -7.3019409  35.6696320  -2.3633225  -8.2867098
  18.1482773 -12.5661192 -42.4765396  18.4581757 -11.6520615 -42.6028709
  18.9171238 -13.0857286 -42.7205658  23.0373898  31.6805077  -4.0984268
  23.1432877  31.2524776  -4.9489679  22.1043854  31.8715878  -4.0408573
  30.2342224 -32.6082344 -25.7322426  31.0051365 -32.4446144 -25.1734581
  30.6847267 -33.2909851 -26.3333988  29.9454880  -2.0442953  36.8087387
  29.1592731  -2.4954331  37.1023979  30.6488628  -2.6938443  37.0900230
 -43.0489464 -19.8122177   0.3967585 -42.3367538 -19.0705585   0.5023373
 -43.8167686 -19.1969891   0.0598490  26.4853554 -14.3686056   7.4962182
  26.5209026 -14.9924622   8.1746988  26.8575058 -13.5750837   7.9190912
 -22.3148479   6.9279389   0.6092120 -22.8076782   6.0708027   0.4395278
 -21.5100670   6.4909515   1.0682375  27.8364983 -29.1840820 -19.9643421
  26.9888649 -29.7265530 -19.7957306  28.4310055 -29.9745216 -19.9852219
 -15.8520041  -1.8736413 -45.0494156 -16.5291309  -2.2791054 -45.6809883
 -16.5170193  -1.6687274 -44.3186111  29.2084064   9.1409721  -5.8066921
  28.8243561   8.4317913  -6.3513269  29.6588726   9.6755562  -6.4987812
 -15.5453119 -22.9443398  27.6488113 -15.2450571 -23.8256645  28.0393620
 -14.9124537 -22.3768234  28.1549740   4.9201012 -40.5921135  12.1371784
   5.6583056 -40.7657509  12.8102932   4.2776294 -41.1880875  12.6121712
   2.0177517  11.5728703  28.4151859   1.3220645  11.1927853  28.9118938
   1.6172209  12.0683107  27.7488689  22.2827435  -0.5073246  28.1275063
  22.2478008  -1.2584774  27.4537544  21.7654343   0.1761497  27.6312637
   3.5328155  -3.2812705  49.2972450   2.7326007  -3.3337998  49.9492912
   3.1217008  -3.7387857  48.5612450 -18.4446144   7.0530987  -5.5765061
 -19.1689644   6.6601505  -6.1384606 -18.9322968   7.7054143  -5.0385690
  14.2941093   5.9136167  28.3332119  13.5893507   5.6157007  27.7094002
  14.3548946   6.8510919  27.9337139 -23.9271889  -2.8472068 -35.8626900
 -24.0062160  -2.8525832 -34.8831024 -22.9400463  -2.8023164 -35.9132271
  39.9290543 -21.7083244  -5.8326921  39.3579445 -22.3165512  -6.1985617
  39.8506050 -21.7132587  -4.8669534  15.0408325  -1.8193675  41.5522385
  15.7970953  -1.8763143  42.1467094  14.3507338  -1.5431244  42.1958733
   1.3650789   5.7789507  28.9086952   1.8380107   5.6434317  28.0429401
   1.3336788   4.8286910  29.2237453   5.0597205 -43.5926056  23.3359623
   5.7783194 -43.9380684  23.8329945   5.3970098 -42.6418228  23.1376019
  -5.7771049 -30.2896328   5.9460316  -5.6101465 -30.1712532   4.9936652
  -6.7443981 -30.4083710   5.8816872   0.2805884 -44.9064064  16.7495632
  -0.2613333 -44.3774910  16.1201267   0.4660215 -44.2712860  17.4729900
  13.9552011  19.7923279   4.6161280  14.7800064  19.4208431   4.9568157
  14.2047672  20.7249680   4.5154076  24.9387722  -4.7762876  25.0339584
  25.2993889  -4.9531007  25.8785973  25.4044800  -3.9230371  24.7395897
  20.6226921  28.9693680   7.7316523  19.7686749  28.5378971   7.6418452
  20.4044094  29.8525963   7.3732047   7.7958670 -35.4637985  22.7040386
   7.0997643 -36.0022430  23.0613003   8.0427876 -35.9615898  21.9187069
 -11.4487267   8.7490225  43.2581367 -11.6036968   9.3850727  42.5525284
 -12.2958908   8.2854013  43.2933769  -5.4590378  14.2584143 -47.4815941
  -6.4500475  14.1667137 -47.5244522  -5.2694383  14.7553644 -48.3234711
  33.3100166 -20.5931149 -22.1792221  34.0598640 -20.0240726 -21.9026833
  33.2639122 -21.1948795 -21.4246407 -16.5219021 -36.2753029  -9.1809559
 -15.6462154 -36.0684433  -9.5932388 -17.0671310 -36.2575874 -10.0110235
   0.0304918 -43.3430290 -20.6326866   0.7091635 -43.8629837 -21.1427155
   0.2884067 -43.6559525 -19.7183819 -35.5221405  -1.8263290  37.5556068
 -35.9771500  -1.8896337  36.6833992 -36.2576103  -1.4884062  38.1298981
 -14.5168400 -33.5764046 -19.6862869 -13.9163322 -34.2586098 -19.3588734
 -14.1205072 -33.3516846 -20.5405903  28.4961395  17.3189087  22.4004059
  29.0128670  17.9313850  22.9662876  27.5820847  17.5745163  22.5437870
  18.8252926 -30.4410515 -31.3640556  19.3759212 -29.8655643 -31.9710178
  18.7361317 -31.2720890 -31.9003601  24.7681503  24.7983875  23.0607853
  25.7001610  24.6624832  22.7633686  24.8731937  25.0667706  23.9314518
 -35.2369804 -13.7549648   0.5055367 -35.7264023 -14.5385284   0.7714604
 -35.4393959 -13.1884966   1.3030269  21.0181484  34.6337357  -4.5413523
  21.4179821  34.2822685  -5.3359127  20.2106724  35.0243988  -4.8894644
  -9.2483587   0.2586719 -21.3268871  -9.1401939   0.6126176 -22.2207108
  -8.6525316   0.8783993 -20.8047924 -13.1279573   6.7178464  51.9187279
 -13.9600639   7.1174474  51.4830818 -13.2836800   6.9844379  52.8113174
 -25.3991623  15.1428699 -29.2275124 -25.4468498  15.9137650 -28.6173439
 -26.3719139  15.1105413 -29.4682484  -4.6153975 -28.9705009  13.3717346
  -3.9783733 -28.2048244  13.3588600  -5.4421096 -28.4864750  13.2700930
  43.1870155   2.0376775  16.1934299  43.6277351   1.1889882  16.4035931
  42.9276199   2.2390189  17.1226387 -13.8141413   9.7759075 -25.1875935
 -13.2105236  10.4659548 -24.8484249 -14.6766443  10.0513525 -24.8847103
  40.4428482 -20.5515766  23.6191807  40.5538902 -21.4226322  24.1622620
  39.6001930 -20.2418251  24.0568027  13.1827602 -39.7866058   0.4785812
  13.4257069 -40.4097061   1.1211166  12.2847376 -39.4822044   0.8717093
  27.4771156   6.5680456  27.2571278  27.6185818   7.4412785  27.6628914
  27.7931595   6.7120147  26.3420296 -20.9824066   8.2161436 -41.8007812
 -21.1260681   8.1155453 -42.7791786 -21.4349060   9.0758705 -41.6830711
 -15.3999681 -34.8484917 -25.2305431 -15.7530365 -35.2462158 -26.0902252
 -14.9669867 -34.0308266 -25.6412296 -14.2780848 -11.1229954  26.8512592
 -15.1524982 -11.1395807  27.3422432 -13.8548307 -11.9100943  27.2227631
  -5.3193722 -22.4423008   2.5290301  -5.1452050 -21.5021152   2.7603378
  -4.9349670 -22.8002186   3.3902993  -0.1730825 -27.8518066  37.1826630
  -0.3136070 -28.7755241  37.3413315   0.2728139 -27.8781872  36.3237267
  33.9789810  19.9104977   6.0813274  34.1344337  20.1599617   5.1339679
  34.4926414  19.0611610   6.0625691  -6.0518832  -1.2323388 -19.3481941
  -6.8931351  -0.9830163 -18.8643303  -5.9806333  -2.1832664 -19.0896111
  11.3851671  38.3204155  18.2924366  12.2981882  38.5184059  18.5765629
  10.9595480  39.2128448  18.5042171   6.7793584 -23.9862404  16.2237682
   6.7793870 -24.2079678  15.2677984   7.6403756 -24.3299828  16.4928055
 -18.5254936  28.7284260  -5.8962822 -18.9156513  29.3966961  -6.5251989
 -18.8232956  27.8633728  -6.2378359  13.1990356  18.9364071  23.3439732
  13.2603588  19.9274406  23.4073658  13.2609777  18.7837257  22.3518810
  17.8335094   5.6262541  -6.6356540  17.9158020   4.7466979  -6.8601017
  17.0389214   5.9383812  -7.1573920   9.7082796 -11.6331100 -44.2494049
   9.1011333 -11.0553045 -43.7545090   9.9901543 -12.2150974 -43.5168114
  30.6030617 -26.8662014 -15.6957626  30.4328785 -27.6900539 -16.2681046
  31.3293171 -27.2288780 -15.1830349 -27.5025253  27.7274017  13.2731876
 -26.5797920  27.6108246  12.9839544 -27.3695641  28.2384033  14.0562334
 -24.1487198 -25.9007816  11.9503164 -23.7898636 -26.0366573  11.0423574
 -25.0643578 -26.1087589  11.7478867 -18.5428810  32.8123245   5.3665214
 -18.6363888  33.7617798   5.4910750 -18.5252132  32.6884346   4.4558949
  15.3691549 -10.7899017 -47.9523697  16.0499115 -11.4232903 -48.2993202
  15.7525797 -10.7165022 -47.0471191 -11.1207323  28.4330158  19.4572678
 -11.5680103  28.0870476  20.2679825 -10.5519886  29.1327229  19.8214874
 -14.3198299 -26.6200199  18.2924652 -13.9712973 -25.8236122  17.8375931
 -15.2390184 -26.4513187  18.3347664 -16.8514252   2.4515429 -42.9158783
 -17.1392231   1.6783108 -42.4186478 -17.6544609   3.0044167 -42.8863144
   5.5526619   5.6087475  20.5920773   5.6939001   6.5312462  20.2147884
   5.1622467   5.2136149  19.7278137 -32.6403046  30.4305267  17.9442596
 -32.2067223  30.7090969  18.8083935 -33.4757767  30.1099682  18.3228416
  33.9426041  14.8208036 -18.6508904  33.0618401  14.5948324 -18.4197845
  34.0403290  14.5149889 -19.5552731 -14.7515574 -22.1182022   7.8275089
 -15.2521095 -22.6336002   7.1734061 -15.4597034 -21.6921997   8.3244267
  14.2298622  32.1200447  27.2531815  13.8865509  31.2269783  27.4796562
  13.3143845  32.5056152  27.1372280 -11.4905758  -4.6253128   8.4636736
 -11.4331865  -3.8300793   7.9263949 -11.8345537  -5.2675843   7.7412276
   8.7921295   1.5237457  29.5948086   9.0858107   2.4637444  29.5088444
   8.2870445   1.4346142  28.7464333 -33.0209198  -3.1270392   2.8469896
 -33.6574783  -3.2780714   2.0594666 -32.9480782  -2.1638906   2.8138318
  27.7557602  14.4269867 -20.6818695  27.5550861  13.6919155 -21.2454967
  28.3295460  13.9432287 -19.9749756  -6.2504878  45.0143204 -12.0030565
  -5.6079788  44.8210869 -11.2788639  -6.6746020  44.1099472 -12.0709639
   3.5061448 -32.0792847 -12.7280407   3.7675478 -32.6791801 -11.9701815
   2.6873548 -32.5540123 -12.9955359 -34.1536789 -36.1450195   1.4803557
 -34.2327461 -37.0631371   1.1024098 -34.8215981 -36.1845703   2.1920249
  -1.2234883   4.2807455  -6.0446796  -2.0189173   4.2305498  -6.5816026
  -1.6961706   4.6320758  -5.2604976 -36.2404938  31.9550171  13.3991079
 -36.4526176  32.0822487  14.3861732 -35.7796822  31.1100483  13.4552746
 -41.9554405  18.6939220  17.4737072 -42.0547447  19.5504913  17.8851681
 -41.4845047  18.8252258  16.6575890 -42.7648773  -9.0586720  -3.7804644
 -42.8073349  -8.2124281  -4.1707401 -43.7264404  -9.2905693  -3.6084130
  11.2854729  -3.8118505 -15.5546083  10.8961182  -3.0197861 -15.9137516
  12.2302237  -3.7120936 -15.7289457  16.0617905  -8.4753132   0.4009915
  16.1689529  -8.0653811  -0.4833315  15.1055984  -8.6268063   0.4508993
   6.8720598 -17.3744049 -19.2392941   7.2344489 -18.1953964 -19.6760139
   6.4014010 -16.9294052 -19.9803677  23.6436844  40.7296562  -0.9446201
  23.4744644  40.7396469  -0.0020075  23.9511337  39.7898750  -1.0445879
 -42.6325417  10.2956266 -12.2973127 -43.1508179  10.8534622 -12.8784266
 -42.4962654  10.9437246 -11.5105152 -21.9546795   7.0433140  18.4749374
 -22.2409744   6.1569104  18.6903419 -21.7144890   6.9978046  17.5205097
  39.2251091  12.3533764  17.5378590  39.8428383  12.5263872  18.2801590
  39.5279388  11.4349489  17.3366928 -24.3597279 -13.9330502 -15.0716324
 -25.1785088 -14.1477604 -14.4940996 -24.7494469 -14.1172600 -15.9574661
  -5.5621290   9.2748880   9.2331095  -6.3055110   9.3562317   8.5992670
  -4.8490229   9.1010122   8.5847530 -13.0915585   6.3700371 -10.8740005
 -13.3690758   7.1777024 -10.3906927 -13.9139242   5.8352094 -10.7231359
   8.2972879  26.0027466  -4.8372993   7.9435129  26.7784386  -4.2439375
   8.6381884  25.4586086  -4.0799537  29.7110844  23.6109467   9.7153559
  30.3016548  22.8192673   9.8052158  29.9486637  23.8805199   8.7773790
   6.4443183  15.8934479  -1.2779194   6.4523153  15.1765394  -1.9677058
   6.1230116  16.6606426  -1.7835058 -18.2508545  -8.1791182  21.5503139
 -18.9398384  -8.3360481  20.8108826 -18.4452972  -7.3107972  21.7714691
  36.4290962  27.0042610   5.6837654  36.1558762  27.0996170   6.5918255
  37.1702080  26.3700008   5.8277655 -11.8414583  33.8408775 -16.6313210
 -12.5520248  33.5260925 -17.2295399 -11.0533028  33.5263023 -17.0416603
  38.5089569   9.0762320   5.0238872  37.6369972   8.7542572   4.5591006
  39.1226997   8.6119394   4.5317554   6.7481132 -31.0744553  25.1403046
   7.2419100 -31.1584606  24.2710667   6.5579419 -32.0008125  25.2571239
  13.8536501  13.1523123  18.2663670  14.5148077  12.5051985  17.9586029
  13.4021854  13.4029675  17.4218884  15.4556150 -10.2868977  48.8168945
  14.7151060 -10.1500006  49.5185204  15.1874456 -11.1557083  48.4041634
 -26.1294212  22.6101341  13.2570572 -25.7912483  22.0841026  14.0244160
 -25.4544258  23.3043861  13.1861992  17.3380795  -5.1472654  -3.7741110
  17.9322891  -4.6889887  -3.1276028  18.0409641  -5.7131600  -4.1778440
  14.3308048 -23.9966469  -1.2609725  13.9199028 -23.4798775  -0.5895731
  14.1850166 -23.4945049  -2.1026082  18.1021709  21.3661976  -8.4067888
  18.2388535  21.6777554  -9.3147640  18.0890350  22.2319355  -7.8950958
 -23.5239544  17.7867870 -31.8426666 -23.8555660  16.9998245 -32.2993469
 -24.1277637  17.9494495 -31.1223259  -7.4372301  41.5773430   9.2089472
  -6.7104950  40.9275055   9.4203405  -7.6646347  41.2137299   8.3008976
  43.1824455  14.9918346  -8.5550842  43.1000862  15.3334274  -7.6389990
  42.7714272  15.7552299  -9.0460005 -37.8576927 -10.4178047  10.3252544
 -38.1471214 -10.8312035   9.4982100 -38.7675858 -10.3247890  10.7111616
  -4.0229483  25.7350445  36.5401382  -3.3704913  24.9664593  36.4455147
  -4.4828281  25.7154331  35.6655807  30.9948559  -1.6339813 -16.4648724
  31.7894611  -1.7979066 -17.1126175  30.4222813  -2.3993640 -16.8230934
   7.5698409   5.4246020   1.8670701   7.3032050   5.5757885   0.9672254
   8.3454599   6.0395346   1.9634882  18.1961403  17.5184708 -25.8593082
  18.1698704  17.6756420 -26.8130417  17.7596722  16.6610165 -25.7711887
  35.9686279  -3.5905697 -15.5178461  36.4303207  -2.7514019 -15.4009104
  36.4599533  -3.9449363 -16.2690239  14.5716000 -19.2821693 -23.2458668
  14.2981052 -18.6811409 -23.9227428  14.5262108 -18.7020702 -22.4026051
 -35.9951172 -20.0977459  -2.3803902 -36.1956863 -19.2329025  -2.0047152
 -35.2280884 -19.8125343  -2.9163589 -15.3211040  -0.6503008  46.6340675
 -15.4729681  -0.3626716  47.5513687 -15.0407562   0.2195866  46.2522850
 -34.0505447  -5.8624196  10.4150658 -33.5272675  -5.0518641  10.1242828
 -34.5337906  -5.4936724  11.1558943  44.2271652  20.8386326  -1.2219718
  43.4313622  20.2996845  -0.9533467  44.4014359  20.4644260  -2.1312459
 -20.1720695   3.5178225 -46.7686768 -20.2571411   4.4942145 -46.5679512
 -20.7195091   3.1225765 -46.0529938  16.3633938  -1.2256123 -19.4045658
  16.0643749  -1.7301234 -20.1888809  17.3277683  -1.5669295 -19.4407234
  20.5391426   2.4668934  -2.2550306  21.4312649   2.2446322  -2.5656426
  20.7607307   3.0290511  -1.4892220  42.9127426  26.2359943   4.2815671
  43.7769012  25.8352280   4.3891230  43.1539192  27.0427551   3.7611377
 -26.6610985  30.7571964  -6.3240190 -27.0890903  30.2192898  -5.6240945
 -25.7851791  30.9059010  -5.8813620  26.4917374  -4.4374437  31.5978012
  26.8336964  -4.7995739  32.4721451  26.0064640  -3.6907492  31.8835812
 -21.5917721  36.9861679 -31.4206791 -20.7432308  36.7299995 -30.9923363
 -22.0004902  37.5161285 -30.6800842 -17.2340794   1.8562343  36.8583946
 -17.7139530   1.0249147  36.8372498 -16.5234833   1.6940013  36.2280579
  18.9412861  44.5271263 -13.9899368  19.1809769  45.4718933 -14.1846638
  17.9497662  44.5390358 -14.1817331 -31.4012527  26.6977482   1.3988343
 -31.7417507  25.8201103   1.1666788 -30.7844009  26.3957977   2.1586773
 -36.9765854 -24.8142757  15.5472393 -36.9477463 -25.7303638  15.8530455
 -36.4354744 -25.0009613  14.6910639  39.0540085   0.0256927   9.4520502
  39.1381989  -0.8976563   9.8162508  38.5078621  -0.1204840   8.6346121
  10.0665245 -39.6311150  -4.8275533  10.1454458 -38.8692207  -4.2424102
  10.7355061 -39.4922218  -5.5320354 -13.2130604 -36.1307793 -21.9114990
 -13.1340885 -35.3928375 -22.5624428 -12.6893511 -35.6900978 -21.1858158
 -10.5518074   9.6987305  52.4231606 -10.8649645  10.2426872  51.6366882
  -9.9461908  10.2949352  52.9059181 -29.8941841 -11.0109053 -18.2896080
 -29.9639969 -10.4158640 -19.0599861 -30.7621613 -10.9552984 -17.8998032
 -31.8821239  23.8924828   0.9106466 -31.3889751  23.2701015   0.3728545
 -32.7493401  23.3943157   0.9432414  26.7550774  30.2767735 -12.8321419
  27.7313118  30.0923557 -12.7913418  26.5005302  30.1071949 -11.9355726
  26.7434158  24.1216965 -15.3589659  27.1521034  24.7110405 -14.8071642
  26.4572906  24.5966930 -16.1019878 -36.5852013  24.5746384 -25.6937809
 -36.7957039  25.4904709 -25.9487896 -37.0259933  24.1129780 -26.4432869
 -33.7240944  33.7248001   5.7041645 -34.6185265  34.1757164   5.8793316
 -33.1318626  34.4912338   5.7571259 -26.3297176 -23.0415668 -29.3013401
 -26.6835480 -22.6127300 -28.5465584 -25.4352493 -22.6729183 -29.3174858
   5.7489119  17.4434128   3.9927921   5.3526807  17.7434292   3.1363685
   4.8526602  17.3342514   4.4294457  10.4354715  48.4890671  19.4675903
  10.4537916  47.6307335  19.9270782   9.5597582  48.7781754  19.8568535
 -14.3681974  30.6997833  20.1516895 -14.4215517  31.6211567  19.7506943
 -14.1419554  30.1767750  19.3689232  16.6838627 -40.1399574  10.6992502
  16.5682735 -40.7941399  11.3820028  16.1793499 -39.3733788  11.0905247
  -2.2615592   8.1810503  17.4023647  -2.9911063   8.4731321  17.9492569
  -1.7631401   7.6504183  18.0784740  27.4784050   0.3377326 -18.5784264
  26.5363827   0.4613014 -18.8026657  27.7707958  -0.1899293 -19.3660641
  15.3997860  28.5865078  -2.8790359  15.6330252  28.1532822  -3.7535706
  14.9201775  29.3609982  -3.2367802  41.7104225  -1.3642336  29.4597530
  41.3307381  -1.7656218  28.6493950  41.1398773  -0.5963408  29.6223545
  13.8698740   5.5961103  13.3844213  14.1957502   6.4893346  13.0579662
  14.5172234   5.0279355  13.0890970 -14.4402275   3.1013179  49.9077797
 -14.3584127   4.0674338  49.8014870 -13.5105724   2.7901046  49.7566910
 -22.1303806   5.7949233  43.7661514 -21.2405777   5.5962925  43.9117775
 -22.0656776   6.3667841  42.9441872 -24.5674744 -29.8483334 -14.6600266
 -24.4886684 -28.8805866 -14.7786922 -24.5548286 -30.2068386 -15.5674648
  23.4938545   7.2365255  31.0047359  22.9239597   6.9164939  30.2631149
  24.0358524   7.9019136  30.6252384  11.5574303  -3.6704562  10.6268759
  11.0790844  -3.0968547  11.2471943  11.1373672  -3.3420646   9.7596140
 -34.0431824  -0.7363482  -2.8807616 -33.1522827  -0.7725214  -2.4520633
 -34.0894737   0.2015995  -3.0964766 -22.8639717 -19.1962147  -2.8912411
 -22.6471214 -19.2367954  -3.8710694 -22.9316845 -18.2560329  -2.6969669
 -29.3017540  31.7748432  25.0241299 -30.0514679  32.1945229  25.5467129
 -28.7184582  32.5697517  24.9216652  38.6768570   4.7471590  18.0321369
  38.4963837   3.8128493  18.3742542  38.8514595   4.4989257  17.0550575
 -19.9026337 -27.2613907 -20.6167927 -19.2012062 -26.7993507 -21.1215782
 -20.6352196 -26.6759319 -20.6575718  16.0538578 -19.6678715 -14.9873238
  16.6674423 -19.5331764 -14.2269306  16.5101166 -20.3782825 -15.4547272
  -0.7833959 -22.0680676  17.5137749  -0.9026604 -23.0466747  17.7056961
   0.0264659 -22.0826607  16.8642883 -30.7489586 -29.7765656 -19.7790051
 -30.4752693 -30.6017742 -19.2838078 -30.4493771 -29.0813770 -19.2153358
  34.3966980   8.2687483 -29.7309017  35.3094978   8.5708141 -29.4887753
  34.5765724   7.5354815 -30.3014965   5.6468511 -38.2608986 -14.2046661
   4.7061052 -38.4399452 -14.4105425   5.8391495 -37.5790062 -14.8718443
   1.4847732  29.6699829 -30.7275600   2.2255967  29.1279964 -30.5028858
   1.4455405  30.2668362 -29.9663105   0.6249657  -9.5050526 -26.5456123
   0.3140008  -9.5018377 -25.6396408  -0.3201776  -9.6456690 -26.9990349
  -2.8313839  34.9602890  20.1952877  -2.9862933  33.9466591  20.4022999
  -2.4181054  34.7267265  19.3053722  27.6331024  24.4820175  24.2161179
  28.2403908  25.0214996  24.7766895  27.5253677  25.1337337  23.4556847
 -28.1662083   4.2925429 -23.9364929 -29.0967541   4.6515074 -23.7133846
 -28.2654343   4.3288441 -24.9166107  26.8142872 -24.0253716  28.5527000
  26.5017738 -24.9485016  28.6577129  27.7542191 -24.2420788  28.3173370
   4.6382833  -5.3610287  43.0826569   5.1944470  -5.0854759  42.3400345
   5.0361733  -6.2603254  43.2687988  12.1149282  27.1947193  17.7209606
  12.8805904  27.7818813  17.9658108  11.4296007  27.6958942  18.2580147
 -41.7755699  12.3562193  20.5503807 -42.1126366  12.5594940  19.6392117
 -42.5964241  12.0865498  20.9579124  26.5189800   9.7657471  -6.0944510
  27.3541584   9.3844166  -5.9809704  25.9661541   9.0361280  -6.4134488
  17.6553192 -24.8855629  22.7687111  18.3598919 -24.3897476  23.1630249
  16.9704952 -24.1452293  22.7373238 -25.7727089  17.3430824  -6.8183341
 -25.9673119  17.0701714  -7.7138157 -26.5953465  17.0082684  -6.3579030
 -38.9858246   4.4586873 -16.5851326 -39.7457275   4.9951134 -16.1096478
 -38.8462830   3.8377581 -15.8438883 -35.7157478 -29.0018368 -14.3323851
 -34.7903290 -28.7254181 -14.2121925 -35.6835899 -29.5949497 -15.1128330
  -4.9008417  39.2453995 -24.0656052  -4.2450562  39.0300598 -23.3734627
  -5.7292986  39.0479317 -23.4895248   1.5196998  -3.6843641 -42.9812088
   0.8350803  -2.9939671 -42.7283516   2.0268610  -3.0575290 -43.5870628
 -19.8141212 -27.8187981 -15.5119953 -19.2580948 -27.9313011 -16.3535557
 -20.6227627 -28.3021488 -15.8426571 -15.2057886  -3.8063328 -21.2213001
 -15.3436871  -4.5282307 -21.8823700 -14.4299726  -3.3325937 -21.6213188
 -24.1386204   3.5319700  35.4020653 -23.1532726   3.4421792  35.6538773
 -24.4949341   2.9292631  36.0515442   4.4913979 -17.9911594  21.9350872
   3.7207439 -17.3551540  22.1297512   4.0939593 -18.6398945  21.3562908
   7.6093912 -18.9305382  15.6653147   7.2016230 -19.3564510  16.4518833
   8.1153202 -19.6429482  15.2481966  12.0867805 -33.7121353   1.3299072
  12.3761711 -34.6167412   1.4063706  12.7688618 -33.2099838   1.7965916
  16.6475620  41.5817070  15.7196550  16.4209175  42.3710861  16.2156963
  17.5903358  41.8876076  15.3954744 -31.5516129   2.6700118  -5.6204548
 -32.2588882   3.2773242  -5.4233403 -30.8585148   3.2243228  -5.9074936
  35.0189323  -8.2130775 -21.3894539  35.3538322  -8.8952923 -20.8606453
  35.8302002  -7.8585186 -21.8461456  28.4954185 -34.6979904 -18.6659775
  29.2886467 -34.2712708 -18.3539257  27.8244228 -34.0556717 -18.9324169
 -16.1870098 -51.2786369  -0.4369860 -16.6710472 -51.3123436   0.3610729
 -15.7781420 -50.3254433  -0.4280979  -2.2364676  26.7333412   4.6535373
  -3.1668007  26.9641495   4.9140258  -2.1167510  25.8696613   5.0728450
  35.4855003  -6.7395782  -0.2468800  34.6712608  -6.9166160  -0.8256084
  35.9412842  -7.6277013  -0.4191830  22.7332706  41.3234749  20.9840031
  23.0898113  42.2199516  21.2720642  22.9961987  41.3237610  20.0506954
  36.9839401 -17.2391968  -7.9876623  36.1577835 -17.3160744  -7.4835072
  37.3147087 -18.1685085  -7.8121214 -26.6491280 -12.0467968  -3.5652473
 -26.4981232 -11.2549419  -3.0346589 -25.7909946 -12.1495399  -3.9926798
  24.8579693  20.5483475  27.9062939  25.7258549  20.4732418  27.5196476
  24.9194756  20.0497055  28.6954975  27.5310020 -16.4855804  22.0864143
  26.7731056 -16.7645798  21.5094566  27.1175175 -15.7193108  22.5788841
 -19.1547222  30.2299500  16.3943806 -19.0199490  30.7397766  17.2404594
 -19.9969807  29.7900410  16.5703564   9.0563354 -22.2966557  27.4166660
   8.5152655 -21.6101913  26.9397335   8.5326929 -23.0665932  27.1630859
 -21.7788162  16.5066185 -23.5513821 -21.7273712  16.4204903 -24.5234089
 -21.7151928  15.5814924 -23.2540512  13.7773981  23.0265312 -24.6912079
  13.4206114  23.5913944 -23.9883804  13.3821421  22.1731739 -24.4760780
  15.3654118  -3.6769874  -1.9344625  15.2906590  -3.2605708  -2.8582397
  16.0372543  -3.0521061  -1.5160338  12.4467850 -10.0121260  -6.5008974
  12.0349493  -9.3505592  -5.9762840  11.7897215 -10.6336746  -6.7430816
   2.3909862   4.7038565  -3.4049904   1.9339292   5.1561475  -2.6475439
   2.5970259   5.5489497  -3.8896682  12.5276299  -5.2803226  24.6862411
  12.6675081  -6.1188674  25.1992569  13.4979897  -4.9584875  24.7633896
  15.7757502 -32.3516502  15.9654942  15.0649319 -31.9670086  16.4745026
  15.4295712 -32.2553711  15.0646992  -4.6824579  38.8715439 -28.8269196
  -4.4836726  38.9404411 -27.8885593  -4.0329790  38.1498070 -29.0886097
  -4.4829717  12.2946596 -20.3500443  -3.6306150  12.8099604 -20.2136383
  -4.1665354  11.4395952 -19.8564129   1.9240646  17.3579044 -22.2022018
   2.2632513  17.0516815 -21.3169327   2.1867428  18.3051891 -22.0525551
 -33.6171646  16.3069592  15.2791357 -34.5407600  16.3695889  15.0808668
 -33.2615700  16.7391586  14.4567509  -3.4474757 -30.5751667   0.2517245
  -3.5519850 -30.1543121  -0.6145447  -2.8415041 -31.3166637   0.0694524
 -25.6631641   6.8268571  -9.5923786 -25.4534683   6.0998902 -10.2534857
 -25.2633305   7.5991716 -10.0448427   4.4926095 -29.2003784  -1.8626199
   5.1833143 -29.4994030  -1.2141169   3.8089271 -29.9056969  -1.8489038
 -26.4050598 -29.4191685  -9.7115822 -25.6239319 -29.9779568  -9.6494827
 -27.1106892 -30.0738087  -9.9649668  -2.7124386   9.5319748  48.1531677
  -3.1786458  10.4343014  48.2334366  -1.8252704   9.8197594  47.9715805
 -42.3751030  12.7853689  29.8135910 -41.4031906  12.7453051  29.9020100
 -42.5167007  11.8044281  29.7064075   1.9544613 -23.8056641  -4.7210722
   2.8760867 -23.9408054  -4.9216461   2.0596058 -23.3536987  -3.8670421
  44.1797333  20.7892189  -4.3014717  45.1005249  20.8660583  -4.5675979
  43.9723129  21.7244606  -4.0949736  19.2460194 -18.5598068  -9.9407110
  19.3735008 -17.5934334 -10.1572590  19.0657520 -18.5155926  -8.9859505
  -5.2160306  13.6400452   7.6753306  -4.5012102  13.6662941   8.3816433
  -5.8317151  14.2158871   8.2460766   8.9959459  30.1462688 -11.7624273
   9.1693239  30.9187012 -12.3745432   8.1710577  29.8019695 -12.1682043
  21.5195026  11.6971140  32.2712593  20.7902565  11.0249786  32.1826630
  21.8004379  11.4917707  33.1918678 -11.6447716 -14.8530045  -6.4813972
 -10.9344292 -14.4318209  -7.0863748 -11.2606745 -14.5951805  -5.6304717
  -5.7630186 -31.6400089  16.1684647  -5.6357665 -32.2282486  16.9322720
  -4.8552508 -31.2636089  16.0796413  12.0467224  24.2786083 -19.9771347
  11.3066664  24.8330135 -19.6375542  12.6441488  24.2653389 -19.1683369
 -14.9466610  -3.5313160 -27.4561005 -15.2843761  -4.1086502 -26.7200680
 -15.2396355  -4.1519628 -28.2084789  -0.3208089 -13.1434622  15.5172091
   0.1271542 -13.4668036  16.3128490  -0.9967362 -13.8747606  15.4349079
  24.3944054  -3.5084934   5.8046947  24.6214848  -3.9980457   6.6080084
  23.4656544  -3.6358342   5.7090092 -42.9292450 -16.0701694  13.1887217
 -43.6848030 -15.9958448  12.5822964 -43.2728462 -15.6242342  14.0107422
  39.4164810  23.5139465  12.3523111  39.7886162  22.6327953  11.9815903
  38.8523483  23.7855682  11.5654259   8.3289051  29.9191151  18.9771366
   7.3982081  29.9617653  18.6622925   8.3170652  30.7242527  19.5143471
   3.1125472  -4.7768502 -23.0799923   3.3352058  -5.6850090 -23.3567486
   3.9137666  -4.2709341 -23.4413719  24.4516449  21.4583950   4.3450227
  23.9532261  21.4312191   5.2055717  25.3318939  21.7733250   4.7482538
   0.4614104  -5.7968416  16.3585358   0.9600662  -4.9753971  16.1342049
   1.1808468  -6.3000479  16.7808571   0.7989339   1.5207392  37.6136017
   0.1235053   0.7926023  37.5380135   0.3542587   2.0475574  38.2664871
  -6.6912694 -31.7084599 -10.3116159  -6.5007167 -32.6807213 -10.3928661
  -7.0732813 -31.5332451 -11.2052212 -41.7638550 -16.2400875   8.5416164
 -41.7035255 -15.5872650   9.2754860 -40.8338585 -16.4086704   8.3827362
 -34.7615623  22.2518368 -16.3829041 -33.8863678  21.8459244 -16.0831032
 -34.4476662  23.1623096 -16.1338310 -10.4949923 -19.7074184  27.4451199
 -10.3921518 -20.6074123  27.1164150 -11.4460831 -19.6127834  27.6411667
 -21.1367321 -45.8273582 -12.2599220 -20.4558544 -45.1576767 -12.3680077
 -20.6386929 -46.6390152 -12.0967855 -39.4527512   7.0611105  19.8238525
 -39.6339531   6.8893905  18.8688850 -40.0043068   7.9019275  19.8694534
 -41.1068726 -12.5591736  -1.3066809 -40.9784088 -11.6453762  -1.1012461
 -42.1089058 -12.5751600  -1.3151582   2.1659436  -5.0914917  47.5990868
   1.3163737  -5.3734050  48.0523872   1.9850271  -5.6013050  46.7062416
  26.1189098  13.9049253  17.1341610  26.2628021  14.8376455  16.8611469
  25.7958202  13.5806913  16.2538147 -38.5106277 -11.4727631  -8.2079248
 -38.9727211 -11.7197771  -7.3109722 -38.0534973 -10.6704350  -7.8754091
 -16.8012695 -27.7388859  20.1291943 -17.2961922 -27.2324562  19.4342880
 -16.2867889 -27.0346775  20.5874043  17.7890205 -11.5946856 -19.1411991
  18.0147781 -10.7882500 -18.6251030  17.8817825 -12.3251562 -18.4582729
  -5.0055428 -29.8217239 -18.7464733  -6.0005541 -29.7639294 -18.5643520
  -5.0148602 -29.3560123 -19.6218700  38.2931824 -19.0295124  18.8599796
  38.7086372 -19.7413006  18.4077091  38.9894600 -18.6982918  19.5056515
   5.0524101  38.3390884  -5.3597612   4.6790600  38.5067139  -6.2495146
   4.7254333  39.1726151  -4.8654547 -27.0500660  19.0176468   2.4625001
 -26.4966812  19.8359203   2.5193641 -27.1464920  18.7625961   3.3780353
   8.0870190  48.7179756  20.3938484   7.5698867  49.4305496  20.7903309
   7.3901534  48.1430702  20.0033112  -6.9684792   4.5799541   2.5998750
  -7.7890048   4.6184850   2.0657501  -6.2937317   4.4151368   1.9261460
  12.5242929  21.4666557 -27.4898663  12.4643955  20.7316723 -28.1468773
  12.7688656  22.2113247 -28.0868454  -9.4700871 -18.9630642  34.7543564
  -9.9654627 -18.5401802  34.0006905  -8.5816326 -19.0819378  34.3068657
   9.9317617  17.3789272  23.0760059  10.6131802  17.7003899  23.7168427
   9.1070280  17.8679123  23.4164925 -37.8051872  -5.5379624  11.5699310
 -36.8647118  -5.2826219  11.6472530 -38.0961533  -5.1979923  12.4409685
  -1.4658349 -14.5700312  -5.4856467  -2.1539590 -14.4621191  -4.7965288
  -1.6134322 -15.5170174  -5.7532892  11.7959347  35.5646095  -6.8920531
  11.4763327  35.5114479  -5.9338512  11.1323519  36.1648026  -7.2338357
  23.2263279  16.8037815  -7.7212219  23.2675304  16.3743687  -8.6597290
  23.4136562  17.7452621  -8.0279121 -31.4330292  16.0472488 -16.8123722
 -32.0614243  16.8206844 -17.0051594 -31.6406708  15.9867182 -15.8553591
 -23.1851654   4.4118185   0.5874739 -23.6745453   3.9248338   1.3254968
 -22.4480476   3.8281953   0.3442498  -3.8459072  16.4224606  10.6003008
  -4.4564896  17.1028919  11.0220232  -2.9894662  16.7351608  10.9498653
  -2.6593099 -24.1179237  -1.3072613  -2.3247783 -24.8599434  -1.7681173
  -2.1947155 -23.3431149  -1.7051392  34.0290565   4.0248451  34.3909073
  34.2211914   3.8744009  35.3255424  33.6414337   3.1903832  34.1861038
  35.4835739 -11.1601000  13.9166908  34.5991821 -11.1048508  14.3376865
  35.2530708 -11.1862593  13.0015917  19.2367001  43.3149338 -11.0661049
  20.0589428  43.7941360 -11.4356394  18.8528347  43.0415230 -11.9270487
  -0.9006999  -1.9836369  48.8531876  -0.5764228  -1.4528754  48.0917854
  -1.6335979  -2.4574223  48.3843613 -20.0363541 -46.4277992  12.6959190
 -19.2546978 -46.0004539  13.2031546 -19.9880085 -45.8589134  11.8644600
  21.0387802  13.0166044  13.1456223  21.8658199  12.6981125  13.5800924
  20.3971043  12.6210556  13.8402376  -9.6524057  14.0945873 -41.7347794
  -9.3880520  13.3008308 -41.3128891  -8.9611874  14.7320528 -41.4755173
  31.2939110  -7.2927566   5.9548035  30.5835934  -7.8725333   5.6322737
  31.6620827  -7.7414203   6.7304640  -6.4363146   7.5622602   3.6766999
  -7.3797374   7.8714705   3.5344231  -6.5196409   6.6458068   3.3716300
  32.9243546  37.4062157   1.2028431  32.6042595  36.9945526   2.0385239
  32.5008507  36.8494377   0.5482378   9.3331594  19.7293453 -37.8326912
   9.9353075  18.9270172 -37.6808205   8.4747810  19.2345085 -37.8976822
 -29.5705471  -0.3972327  12.1064997 -30.4068871  -0.3675849  11.6340876
 -29.4159527   0.5326536  12.3964729  -7.1850548  -2.5672803 -34.3476486
  -7.1491079  -2.2111292 -35.2556152  -6.4745378  -3.1748943 -34.2879715
  21.4952927 -20.6399517  -6.5826817  20.8020458 -21.1558094  -6.1856184
  21.2091198 -19.7541523  -6.3686705  17.4302597  41.0885544   5.5510650
  17.5501080  40.7594757   4.6295786  17.0533619  40.2435989   5.9096169
  41.5493317 -21.3607941  16.7182941  42.2035599 -20.6886215  16.9937267
  42.0986481 -22.0919609  16.3632355  29.7944679  -3.4129844  -8.3608141
  29.1013451  -4.0736032  -8.2909031  29.3264275  -2.6594429  -8.7804632
   2.3078299  20.7441025   5.9698153   1.7885956  20.2121868   5.3881512
   2.7182586  20.0214233   6.5622101  34.5529747 -15.0479879  -2.0957291
  33.8640900 -15.2923784  -1.4200896  34.3859215 -14.0510712  -2.0503864
  36.0613022  10.2450619  16.3522930  35.5712395  11.0494795  16.0783653
  35.8787537  10.3295050  17.3517952 -11.9329691  24.3844452  -8.2082739
 -12.8494244  24.7631054  -8.2920465 -12.0230904  23.6506405  -8.8803606
  33.0794487  30.7212391  18.7968311  33.0508003  29.7405262  18.8632698
  32.4229279  30.8121719  18.0323544 -17.0318127 -11.5488863  34.1487923
 -16.6522980 -11.8372221  35.0613174 -16.4289684 -12.0992899  33.5943336
   2.7612362 -13.0527258 -15.2980299   3.6870174 -12.9818859 -15.6324778
   2.8573687 -13.9967432 -14.8624344  22.4051933 -13.4343958  17.0592937
  22.9945869 -13.9695435  17.6402493  21.5398254 -13.6113167  17.4378433
  13.2935514 -37.6029129 -19.2287064  12.9527102 -36.6810760 -19.5585251
  13.0841675 -38.1253929 -20.0389385 -24.2593937 -20.2068729   9.9796448
 -25.0276623 -19.6449165  10.3391047 -24.2358456 -20.8843689  10.6998301
  31.6124859  -9.4703474  -9.0946035  31.8555145 -10.1121187  -9.8395948
  31.9607086  -9.9481783  -8.3525505 -12.3664980  -0.9730750 -39.3776169
 -12.3911810  -1.5047194 -40.2227097 -13.3417711  -1.1783967 -39.0825768
  42.5500641  10.5170918 -29.3069229  42.9593391   9.8091974 -29.8104286
  41.8881989  10.0393362 -28.8089466  14.4407482  14.0453882 -13.0528622
  14.4610634  13.0830765 -12.9161272  15.3600531  14.2547140 -12.8314476
 -32.4608345  20.4310684 -15.3140793 -33.2761688  19.9241352 -15.4205666
 -31.9293175  19.8531246 -14.7348843  20.0527267   8.7200871  22.7425385
  20.6693020   8.0946531  23.1401024  19.1874771   8.3863564  23.0430546
  33.6654282   7.6421614  25.1376209  33.8750954   6.8886304  25.7207355
  32.9253654   8.0515251  25.5685863  10.9691906 -11.7065544 -49.2522545
  10.8563833 -11.1202173 -49.9983940  10.5319014 -12.5421619 -49.5858421
  15.9559288  24.2403717  31.7625561  16.8582954  24.5023537  31.4557419
  15.5524807  25.1433525  31.6917534  41.1600723  13.6971798 -15.4793425
  40.3700714  14.2366619 -15.4745045  40.7742538  12.9744577 -16.1068859
  -2.8912377  36.3764381   4.6292939  -2.6156788  36.2080879   3.6673789
  -2.0357165  36.4075699   5.0849061 -12.4837999  20.4369049  25.3141956
 -11.8630199  19.7478333  25.5421276 -12.2117910  21.1348839  25.8852940
   3.0793834  -3.4828842 -16.9919643   3.4159031  -4.3945689 -17.2924404
   4.0451956  -3.0988569 -16.8867321 -14.1404247  10.3566637   3.7070367
 -14.9993534  10.5111275   4.1112423 -13.7124043  11.2320299   3.7744155
 -14.5013914   8.2889891  32.8108063 -14.5297623   8.5666418  31.9107914
 -14.3065052   7.3678932  32.7005119  10.6481686 -20.8039532  -9.7015200
  10.1135979 -21.5910568 -10.0017490  10.6625223 -21.0294628  -8.7324524
 -43.3044319  14.1018600  -4.5092697 -43.7171059  14.9020147  -4.9489527
 -43.2331467  14.4429092  -3.6268461 -44.0950813   8.3289452  11.5421944
 -43.2497978   7.8827934  11.6009378 -43.9712257   9.1064301  11.0389500
   3.0595255 -20.2627811  20.7768784   2.4628885 -21.0942020  20.5211887
   2.3570867 -19.8393326  21.3880100  19.6438026  31.0822296   3.4868872
  19.1447430  30.3575573   2.9959018  20.5983887  30.8837395   3.1014903
 -41.6045189  30.7925053  -5.3278952 -41.6750641  30.5744762  -6.2933502
 -41.4689407  31.8021698  -5.4194565   9.7711334  22.7545643  14.7410927
  10.4303818  23.2331066  15.2424097   9.2820539  23.4702644  14.2720995
 -10.8981724  -1.0987474 -42.9017563 -11.2910023  -0.3132683 -43.3139000
 -11.4815397  -1.7710272 -43.1522865  22.6613216 -24.5785637 -36.9298477
  23.2352066 -24.8871861 -36.1905251  22.3277836 -25.4676857 -37.2232323
 -40.4249039  29.6044331 -17.6953945 -41.0970078  29.1420059 -17.1790924
 -40.8083534  29.7163601 -18.5633373 -13.7594051  38.4639511  18.7218819
 -13.3351307  37.7348862  18.2975006 -13.2435837  39.2498856  18.3717308
  17.0378876  12.1570950  -1.5954157  17.9920750  12.4168577  -1.6437191
  17.0874348  11.5591993  -0.7532584  -6.3328462  11.7927485 -35.6714134
  -7.0616693  12.3962965 -35.4970551  -6.6578798  11.3877192 -36.5043945
  43.9634666 -22.8128471  12.7233305  43.7741089 -21.8841057  12.2977638
  44.6601562 -23.1359558  12.0852995 -43.8207588  26.5767498  10.4181309
 -43.0708046  26.1529045   9.9570942 -43.6830597  26.2942982  11.3294363
  14.6489496 -10.8882780 -53.1144791  14.6096878 -11.5737524 -52.3879356
  15.0078888 -11.4849291 -53.8333931 -18.5996037  16.6102390   6.1712337
 -19.0024586  16.5947304   7.0692582 -19.2804623  16.1168194   5.6584401
 -18.3129883  -4.1457257 -26.6849804 -17.5941296  -4.7185383 -26.2545853
 -18.1625576  -4.5463295 -27.5958786 -30.8911209 -17.0638504  13.0496111
 -31.7894592 -16.8383999  13.3447266 -31.0189896 -17.4597969  12.1623383
  -9.3287086  21.8372860 -16.9129944  -9.9357204  21.1133995 -17.2044048
  -9.8737278  22.3837242 -16.2955379 -32.0187721 -12.7626963   2.6674669
 -32.3807373 -11.9012594   2.6378074 -31.3954353 -12.7592773   1.9248899
  -6.8737240 -28.8404083  27.0662556  -6.2289228 -28.1048374  27.2090950
  -7.3652973 -28.8296833  27.9024391  13.3449068  50.1250992   3.4334648
  13.1603737  49.5286522   4.2052784  12.7379503  50.8473358   3.6985517
  44.0374718 -25.8007412  -1.9796987  44.9510384 -25.5609875  -2.0535882
  43.9215508 -26.2158947  -2.8852193  -2.2852056   7.0653338  -2.1220772
  -2.3077426   7.6137366  -1.3364940  -1.9100529   7.6261277  -2.8136153
  -4.5912137  -3.5589900  28.6590042  -4.1813169  -3.7345071  29.5794239
  -4.6748538  -4.4876761  28.4198246 -31.1125832 -19.2613163 -18.2947083
 -31.5140247 -19.5310879 -17.4631481 -30.7533798 -18.3704319 -18.0706196
  -0.3535394 -15.6019402  21.2217102   0.4243636 -15.1625605  20.9574718
  -0.1635061 -16.1461582  21.9531631   2.2385652  46.6480179   3.0665073
   2.5093217  47.1435928   3.8787639   2.3316767  47.3588257   2.3938873
  16.6508465 -19.0506611  41.6012306  16.9651299 -19.9326611  41.7255630
  15.8717794 -19.2245350  41.0048904   6.7269163  -4.9213872  -7.0619588
   5.8496408  -4.4751577  -7.0602050   6.8526311  -4.9603424  -7.9880662
 -19.1666489 -33.0089264 -12.0386562 -18.5560665 -32.3339500 -11.7751627
 -19.1292953 -33.0745049 -12.9945545   4.6767097  -0.7556430 -52.4608345
   4.7606239  -1.5705557 -52.9973183   3.8609743  -0.8804095 -51.9939919
  24.5224743  18.4380112 -32.7194595  24.5800533  17.9008999 -31.8697128
  25.2252693  17.9703617 -33.2041931 -10.9686346 -48.0485306  17.6439610
 -11.2317114 -47.4240685  18.3281898 -11.2218752 -48.9156151  18.1504230
 -36.6393814 -29.3721237   9.6122456 -36.8394585 -29.4288387   8.6403780
 -37.4523697 -29.2684937  10.0294333  -5.3702044 -48.0428963  20.6724415
  -4.4908419 -48.5468407  20.7437305  -5.1869450 -47.5054398  19.9369678
  16.7582912  24.0814800  -7.3916225  16.8455429  24.9810009  -7.8884773
  15.8629827  23.8457813  -7.7698174  11.4156370  24.5010586 -25.9459553
  10.8981495  25.3277817 -26.0488529  12.3038807  24.8013077 -26.0550671
  -2.0375950 -10.1286898 -35.6064720  -2.6345279  -9.7502546 -34.9391556
  -2.6538169 -10.1469641 -36.3662033  15.0787783 -32.5241699 -39.1520767
  15.3967276 -32.6300545 -38.2098808  15.8934336 -32.8258629 -39.6453857
   2.8434737  13.6681795 -29.1955185   3.3944566  14.4605150 -28.9870548
   3.5210798  13.0195532 -29.3943634 -31.0070705  -9.8865814  24.3082600
 -30.9642105 -10.6903992  23.6926804 -30.2320805  -9.3906050  23.9960480
 -27.0588169  -7.1785741 -27.1730976 -26.9546604  -7.3826056 -28.0754738
 -27.5883217  -6.3273220 -27.2099171 -14.8277702 -17.5821781   1.0689446
 -14.4422970 -18.3530273   1.4633106 -14.0986109 -16.9100418   1.0872074
 -27.2164459 -21.7164421 -26.9420242 -27.4545097 -22.4219780 -26.2474709
 -27.8709984 -20.9986973 -26.6907177   0.3822037  23.9757252  22.4839897
   0.2488367  24.1464386  23.4381828  -0.1017481  23.1938114  22.3179226
 -21.8415375  36.2672272 -12.8765545 -22.4936543  35.5664177 -12.6855354
 -22.4887753  36.8962021 -13.3407497 -39.0546761 -17.1294174  -7.3794308
 -38.4881821 -17.7917690  -7.7823234 -39.4376144 -16.7227592  -8.2443314
  14.5505238  -8.3306885 -52.6107597  14.4144640  -9.2000208 -53.0993004
  14.2126112  -8.5504560 -51.7666283 -10.8108339  24.9279594  11.2827740
 -10.6100988  25.8874187  11.0735579 -10.0434504  24.5507412  10.7829266
   5.8339248  13.5541391   5.9172301   6.2282319  13.2309761   5.1455278
   5.0679026  14.0367765   5.6945310  24.6120243 -17.0909367 -40.9022789
  25.4887199 -17.2425575 -40.5011215  24.7509842 -17.6467628 -41.7521133
 -27.6948357 -26.0598087   8.2644033 -26.9640636 -26.7348213   8.3684845
 -27.1765270 -25.3320560   7.8206406  43.5340462   2.2077651  -6.2905116
  43.4041519   3.1085796  -6.6917415  42.9250145   2.2408917  -5.5632877
 -16.7383327   6.9969783 -33.2516022 -17.4422131   7.4262161 -32.7104378
 -16.6487598   6.2021275 -32.8416595 -15.0562992 -10.2843790 -25.9482784
 -15.5795593 -11.1121769 -25.9576206 -14.8639278 -10.2428093 -24.9811573
  42.8809509  27.7402115  14.7517481  42.9010582  27.3172989  15.6723166
  43.8410301  27.6154861  14.5385885  17.2878704 -40.0129700 -15.4794693
  16.3815212 -40.3686943 -15.4997101  17.3165588 -39.6109161 -16.4474239
 -26.4470139  19.0596581 -23.8165131 -25.7975540  18.3900623 -23.4456615
 -25.9942360  19.2769299 -24.6403103 -17.3810520  14.1620655  18.2779121
 -18.2813759  14.1230783  18.6858978 -17.5656471  14.6283379  17.4625607
 -19.0729084  -4.6579866 -29.3967628 -19.9784565  -5.0669808 -29.3173618
 -19.1806068  -4.0156474 -30.1188526 -30.8528938  20.4588261 -22.5446930
 -29.9921989  20.0624180 -22.5422287 -31.2157784  20.2232685 -21.6345825
  -0.7193141   3.2980955   2.5669203  -0.3475789   2.4915102   2.2790837
   0.0231122   3.6523771   3.1917846  -3.9407551  34.0067253   2.1652157
  -3.0939054  34.5936508   2.1212535  -4.5724764  34.6594048   1.8909659
 -20.9547844   6.9114408 -29.4347668 -20.7834435   7.8644028 -29.2937660
 -21.9124393   6.9015803 -29.3306141  -2.4167426 -14.3853941  25.8081074
  -2.8702486 -15.2915087  25.8380871  -1.5029438 -14.7530622  25.9675865
  21.8987179  -1.0291135 -11.9849854  22.4027958  -0.3046952 -12.3125553
  21.8591690  -1.6544901 -12.7278433  26.5255470   9.3660688 -21.9914398
  26.3270111   9.7350893 -21.1266479  26.1679344   8.4811249 -21.9228401
 -17.5484982  -1.7185248 -22.7153034 -17.9102154  -1.6373395 -21.7883625
 -18.4186211  -1.8355496 -23.1708107  10.3283005  13.5795507 -21.4912186
   9.7085495  12.9936876 -20.9761543  10.4486237  13.0388050 -22.2938099
   6.6392636 -19.4006443 -10.8764391   7.1872244 -19.2728443 -10.0900030
   7.0871286 -20.2032700 -11.2709188  41.0223656  15.7280245 -21.6139660
  40.5096970  14.8429966 -21.4369965  41.7764893  15.3583536 -22.0481644
  -3.5850399   9.3851376 -13.4469938  -3.0014527   8.9403305 -12.7971582
  -4.4665871   9.0020475 -13.2987337  26.4789257  15.3188162 -27.9196568
  27.1315594  15.5241842 -28.6118832  26.8912296  14.4883318 -27.5318890
  36.2545509  25.9814072  12.8947668  36.9594345  26.1190262  13.5478392
  36.2684631  26.8444691  12.3851395  24.6061096  44.9905548   3.4430923
  24.3303585  45.8855858   3.6316056  24.2249584  44.6075478   4.2264781
  33.5428429 -31.1769772  25.9652328  34.2020950 -30.8807449  25.2907734
  32.8937454 -30.4413280  25.7527485   6.5516973 -30.4932213 -11.9981041
   6.3512535 -31.0962524 -12.7449760   6.5350738 -31.1178913 -11.2246294
  26.9634476  -2.7956424 -29.2612305  26.2234535  -2.2516658 -29.5954552
  27.5949249  -2.1454947 -28.9169655   5.1938896   7.6553068 -31.8492527
   5.5110750   6.7653985 -32.1693306   4.9579482   8.1021280 -32.7080803
  22.0198040   0.3224405  34.7630157  21.6972828   0.3616189  35.6648750
  22.2825680   1.2882035  34.6466484  11.0026169 -19.9014664  46.6252823
  11.6809254 -19.7581158  47.3830528  10.9330292 -20.8724899  46.6727066
   1.5213664 -13.0841961 -41.5785408   2.1596091 -12.4293137 -41.1423264
   1.9346203 -13.8773975 -41.1417313 -34.7911110 -22.3425922   9.9744730
 -34.2736702 -22.9106693  10.6277475 -34.3743439 -22.6246624   9.1608038
 -35.6156197  12.0353956 -24.1119366 -35.5185089  11.3755789 -23.3995533
 -34.7209740  11.9503050 -24.4656372 -18.7086639  -1.6514480 -26.0214558
 -18.5983315  -2.5944610 -26.2777786 -19.3877392  -1.7925346 -25.3027458
  -4.0177646   9.9962292 -43.1162605  -3.9070687   9.3823872 -42.3618469
  -3.2151132  10.5294886 -43.0820770   3.6758084  26.3466549  23.4854889
   3.7795637  25.9840946  24.3953857   2.7299149  26.5636959  23.5074615
 -15.3333197 -43.8046608 -19.3054981 -15.3519449 -43.7041206 -20.3061504
 -15.4507627 -42.8428574 -19.0882225 -14.3305769 -37.9856682 -25.8783951
 -14.0976753 -37.1554832 -25.4671497 -14.9754744 -37.6457481 -26.5886078
 -20.0392323   6.4055500 -35.9242859 -20.0091476   5.9319525 -35.1261902
 -19.1650791   6.2773852 -36.2934456  13.2361240  35.6964798 -26.1219501
  13.0443726  36.1334801 -25.2378044  13.1700525  36.5573502 -26.6632843
  13.4150162  -4.2424135  -0.1557281  12.9818840  -4.9774337  -0.6436995
  14.3097734  -4.1828184  -0.5989754  32.0082741  -8.7671881  25.2852230
  32.5910950  -9.4329100  25.6060295  32.0475578  -8.1345177  26.0378952
  41.6412201  17.4566612   7.1102867  41.3174629  18.3101082   6.7070141
  42.4621887  17.8281059   7.5085855  24.6631145  12.6963167  10.0483627
  24.4074650  12.2458353  10.8916588  25.5223942  12.2198906   9.8854761
  13.1942558 -10.1273966 -10.5703325  12.4614143  -9.6479301 -11.0366573
  12.9190855 -11.0957680 -10.7020187  12.2215786   7.0220537  40.5234489
  12.0563822   6.7378693  41.4167976  12.3167639   6.2177534  39.9976425
  -2.6465189 -25.3346310  15.7471170  -2.1271670 -26.0381851  16.1626549
  -3.3531492 -25.2516537  16.4664669   6.5747590  15.1618052  -6.0767446
   6.7031116  14.2525473  -6.5043492   5.9886351  14.8311958  -5.3386345
  18.2609253  -2.0702674  36.4258537  18.0502300  -1.0844111  36.3782578
  19.1400471  -1.9580839  36.8260765  -7.9197526 -35.0045166  12.8845797
  -7.7813592 -34.3221016  13.5864935  -8.8664379 -35.0801277  12.8077354
  23.0092068  -0.1923732 -19.1814079  23.2273369  -0.5306401 -18.2843781
  22.3835297  -0.8062607 -19.5295963 -29.7429333 -32.8826447 -22.3351994
 -30.6129780 -33.0520287 -21.8458500 -29.9779778 -33.3501701 -23.1723328
 -10.6315298 -43.3029099 -18.4971981 -11.0575848 -44.0465355 -18.0103378
 -10.8761759 -43.5718307 -19.4285030  -6.5837889 -23.6618519  -8.1875477
  -6.4761796 -22.7053871  -7.8853612  -5.7342749 -24.0134811  -7.8132529
 -23.5344524  28.4075279 -26.1387405 -24.3632641  28.4364185 -26.6895370
 -23.8284264  28.0617657 -25.2942677 -10.2404594   0.5005916  22.6846619
 -10.1855097  -0.1617328  22.0460167 -10.6863518   0.1103423  23.3873730
  39.6150436 -26.7952957  19.5245857  38.9729347 -26.0846424  19.4551125
  39.8507996 -27.0293522  18.6245251   3.7626216   7.8547049 -19.2145615
   3.7187941   6.8661699 -19.1478252   4.5677328   8.0343151 -18.6428413
  -1.0371914  21.6215363   4.8932004  -0.5758125  20.7229328   4.9267521
  -0.8716394  21.9292183   3.9708579 -44.5403824   5.3304658   1.7600050
 -44.7348747   5.5809889   2.7036242 -43.8941002   4.6121192   1.9581251
 -42.2815742  12.2860746 -26.3230400 -42.2080421  11.5043478 -25.7450123
 -42.9566956  11.9835110 -26.9800587 -26.2353172  22.6846218  -2.5957911
 -26.4145126  23.5819550  -2.3561730 -26.4248161  22.2084541  -1.7550831
 -43.3889961  11.8253899 -14.6796360 -43.9111404  11.5456161 -15.4858208
 -43.5792465  12.7873688 -14.7798672  -6.1568775  -0.7581818  -1.6116633
  -5.8460846  -0.2105431  -2.3929009  -5.3902054  -0.7162638  -1.0501077
  20.3407230  20.3725052  32.5083694  19.9270782  20.6743565  31.7036171
  20.6673546  21.1371861  32.9762192 -24.1286182  29.0839806 -32.6346245
 -23.6586857  28.5442009 -33.3191910 -24.0430660  29.9577732 -33.0360298
  22.6669159  19.9668941  -8.3089142  22.8101444  20.9522839  -8.3190594
  22.6211128  19.7891045  -9.2508984 -20.6121960  17.0105534 -29.4333324
 -19.7310429  16.8219376 -29.1525917 -21.1005783  16.2463665 -29.1475830
  39.8796463 -21.4850864 -23.6317101  40.7660332 -21.6078796 -24.0652523
  39.9571495 -22.1812325 -22.9338837 -18.6744480  30.9071064   2.7465391
 -19.0157490  30.4496708   3.5403805 -18.4550095  30.1354828   2.2177303
   1.4523394 -43.0298653  13.2993031   1.4749522 -42.6565704  12.4066095
   2.2956131 -42.6623611  13.5908241   5.1573334 -30.7019482  -7.4724092
   4.6070180 -30.1208439  -8.0016794   4.5635047 -31.1314564  -6.8405247
  32.3723373  38.2204208  -8.3612318  33.1898346  38.7906837  -8.4131298
  32.0784340  38.0759125  -9.2032452  -1.7202077  22.1951408 -11.4655991
  -1.8865631  22.7724476 -12.2371368  -2.5864563  22.1016064 -11.0035172
  12.3413239   0.6964746 -14.3932438  11.8650293   0.5849826 -15.2148275
  12.6710758   1.5915021 -14.4763517   4.5892782 -12.7548532 -28.5728073
   4.5563478 -12.2919836 -29.4476299   4.3223953 -12.0063133 -27.9787865
  13.3365936  49.0020981  -6.6445923  12.5188122  48.7448158  -6.0865941
  13.8155136  48.1528702  -6.5233293  29.4007244 -24.7986851  11.5982676
  29.4122944 -24.0812664  12.3153391  30.2314129 -25.2375107  11.9245253
  15.6257029  14.9770670   0.3575788  15.2743998  15.0058603  -0.5685064
  16.4645996  15.4804001   0.1815135  -6.5425606 -48.3508530   6.1293635
  -6.4738708 -48.2109566   5.1604314  -7.2225237 -49.0023384   6.2307997
   2.4165027 -29.7226028  -5.9368749   2.9772336 -30.5935402  -5.9622169
   1.5395358 -30.1385021  -5.9346738   8.5851288 -11.3805952  -1.1601217
   7.6265039 -11.1869020  -1.0453954   8.6366816 -11.1956882  -2.1133158
 -41.5073929 -22.5965004 -12.7417936 -42.3118706 -22.0970116 -12.9942226
 -41.8837090 -23.4371433 -12.4290628  -2.9752805 -46.9204063 -14.5786009
  -3.5451849 -47.5263138 -15.1264524  -3.5172577 -47.0253983 -13.7606964
   5.0531211 -23.7209320   5.1214795   5.8274279 -24.3265133   4.9763350
   4.3545718 -24.3880501   5.3105230 -10.2295628  28.6857338  -8.7824326
  -9.7012396  27.9605007  -9.2534485  -9.6996660  29.4551563  -8.9813185
 -14.3559418  14.8593035  21.7223568 -13.6963387  15.6212940  21.7540627
 -13.8888454  14.2702923  22.3704472 -25.2928429  15.6830206  19.4103374
 -25.1133156  16.0149784  18.4696636 -26.2523270  15.7810650  19.4093418
  16.8179398  36.6577721  19.4582787  15.9334965  36.1696777  19.2778606
  16.4201317  37.3193092  20.0845146   4.7715087  30.5258064  34.7787209
   3.8515832  30.4452953  34.7749557   5.0368571  29.8866158  34.0900497
   2.8251505  39.1216278  15.8365602   3.5220675  38.6964951  16.3517609
   3.2137539  40.0395012  15.8637152 -17.8264294  21.8932915  36.0400276
 -17.7644100  22.7932034  36.4537125 -18.4967690  22.0870590  35.3329391
   6.3275247 -29.6247711  15.9644203   7.0683618 -29.0943546  15.5168486
   5.6618977 -29.5709896  15.2466221 -15.5907869  10.1103821 -40.8692207
 -15.6314335  10.6177750 -40.0098839 -14.7838039  10.4653091 -41.2500763
   6.1739712 -40.6945267  16.9956722   6.6843586 -40.6741753  17.8331165
   5.6284328 -39.8991470  17.0290775  25.1783848 -35.4643745  25.8197250
  24.3572445 -34.9248314  25.6166801  25.5802650 -34.9376564  26.5527802
  42.0833740 -17.9614182  24.9522991  41.6721230 -17.7227936  25.8348637
  41.6571121 -18.8408546  24.8864346   9.1382999   3.5667713  36.3801193
   9.9289351   4.1883259  36.3606720   9.4005136   3.0065739  37.1577988
 -12.6070156  -3.8406267   2.9876561 -11.7673264  -4.0386906   2.4904554
 -12.3425837  -2.9988310   3.4344277 -17.7603703  21.7585945   7.4595399
 -17.9776306  22.5861664   6.9772253 -18.7239151  21.4088421   7.6474795
  27.3295975  22.1845455  20.1217804  28.1354065  22.1117992  20.7072067
  27.2842274  23.1462936  20.0006943  24.0188923  45.3939018   0.5118550
  24.0666389  44.8779335   1.3237898  23.4552708  44.8167496  -0.0487526
 -31.0891857  12.5224009  -2.8298869 -31.9500008  12.0561085  -3.0304322
 -31.3405724  12.9837770  -2.0419760   0.0838371  28.0140228  -7.2387042
  -0.4024803  28.5227032  -7.9712434   0.3490652  28.7050781  -6.6673837
  -9.2261543  18.9475975 -17.4333210  -8.3432417  19.2729816 -17.7191105
  -9.2112627  18.1175175 -17.9285564 -21.5713234  -4.5071607  -7.7406912
 -21.9111652  -4.0378628  -6.9599915 -21.2093678  -3.7800441  -8.2359972
  10.0842762  25.6899948  -6.7820454   9.3574400  25.7875977  -6.0700612
  10.6227198  26.4519787  -6.5117273  30.4684467   5.1342368 -22.3087502
  29.8521862   5.2731624 -21.5308437  29.8785191   5.3194833 -23.0090504
  30.8811836  12.3043051  13.7226801  31.7425785  12.3554668  13.1623621
  31.0605392  11.4528379  14.1549368   1.7946769  26.0034676  26.0597744
   1.5906161  26.7222939  25.4516220   1.0389333  25.4214516  25.9655685
  -4.2594023  14.8456326 -39.6560402  -4.2110405  15.1648712 -40.5678482
  -4.1563439  15.6879549 -39.1500359   3.5516317   6.2818732  42.1227074
   4.3395138   6.8762193  42.0122910   3.3947246   6.3732247  43.1033440
   1.0381378 -10.6128397  -1.1452464   0.3864299 -10.1588774  -1.6496143
   0.4703381 -11.3220701  -0.6588471  -6.9066095   1.7871376  45.3950882
  -7.3726583   2.5938046  45.1363373  -6.2356620   2.1995218  46.0169144
 -21.9101906  -6.3821445 -19.5403137 -22.7248249  -6.5844975 -19.0661545
 -21.2265282  -6.7785888 -19.0156765  32.7631226  27.9118614  18.7403488
  32.8860588  26.9924126  19.0508575  32.6440926  27.7079544  17.7545300
  -6.3607554 -46.4627800 -16.2339897  -7.2304573 -46.9085693 -16.1112156
  -5.6796551 -47.0914726 -15.9815836 -11.1248894  24.9103565 -43.8586769
 -10.5963945  24.3874817 -43.2307167 -10.6280632  24.6418438 -44.6875038
  -6.0284047 -11.8678427  18.3061123  -5.5723600 -11.5110369  19.0625954
  -5.3612285 -11.8804083  17.6109009 -39.5933075  -0.1157000  -1.1737859
 -39.8197708  -0.8193324  -1.7594306 -40.4539642   0.0020045  -0.7267605
 -39.3904533  -7.9105964 -11.9811125 -38.7809982  -7.3931661 -12.5771132
 -40.2046967  -7.4134054 -12.1478004  28.5777683  16.9774380   8.3935909
  28.1360569  17.6465073   7.8277588  28.1753521  17.1848183   9.2573290
 -36.4851418 -29.3590393  22.0206947 -35.5700951 -29.6434860  21.7407627
 -36.8288078 -30.2709904  22.2217045 -16.7007427   5.9955063 -46.7956009
 -16.8311234   5.2557368 -46.1266327 -17.5789318   6.0509706 -47.2146492
   2.4063003  -5.4119344  39.1052818   3.1572435  -5.7053013  38.5932274
   1.7701527  -5.4171572  38.3457146 -17.1938477 -49.7454643  -8.4281387
 -16.3053913 -49.8707886  -8.0962353 -17.7369270 -49.7485619  -7.6269445
   9.9628830  50.1579361  -3.4122591   9.6319551  51.0640221  -3.1105385
  10.0078697  49.6714935  -2.5626748  40.5061493 -14.1421452 -29.7137699
  39.5780373 -14.3813705 -29.9574490  40.9839020 -14.6870251 -30.3559856
 -30.0331440  21.1430149 -12.2592583 -29.8128643  21.1087494 -13.2525673
 -30.7425022  20.4045849 -12.2901678 -16.0783176  12.3844862 -26.2204075
 -15.1396360  12.6167068 -25.9169273 -16.1317482  11.5071936 -25.6980305
  29.3467293   8.1230106 -14.0280695  28.7630081   8.2621212 -13.2141209
  29.1969414   7.1506577 -14.1518230  -7.5835094  26.1384468   0.5761938
  -7.9069290  25.6968288   1.4301229  -8.5660744  26.3656254   0.2667324
 -34.3360519  29.6627178 -19.2944279 -34.1392250  29.1951389 -18.4539413
 -35.1973419  29.2018242 -19.4914246  12.8948784 -29.8804493   9.5030127
  13.4685345 -29.3108406  10.1098375  12.4988222 -29.2057095   8.9056530
  -3.1992571  32.1387215 -20.7006321  -2.4358284  31.5210266 -20.4382496
  -3.4518564  32.4129181 -19.8292789  -0.7846026  -5.6731367 -43.9035721
  -0.5701943  -5.1672916 -43.1113968  -1.7861261  -5.5959554 -43.9137001
 -17.9569206   8.8664970   7.2529430 -17.4936237   8.0838547   6.8962932
 -17.2015839   9.5735121   7.1804552  12.8238688  48.2649460 -19.2251415
  13.3150654  48.6242599 -19.9844246  11.9575186  48.0882225 -19.5548801
 -17.2524433  29.9742908 -40.1033325 -17.9690876  30.3781643 -40.5306396
 -17.6690044  29.1826267 -39.7151260 -15.5139885  24.9525852  37.3745766
 -15.5697746  25.8963661  37.2462273 -16.4577198  24.6691036  37.2282906
  25.8825054   6.4540858 -31.3637905  25.7068539   7.3638201 -31.6927013
  26.2272129   6.0864868 -32.2249641 -19.5026550 -49.1597748  12.9569626
 -19.5711288 -48.2957954  12.5771389 -18.5535622 -49.3728905  12.9069386
  14.5427017  13.2430382  20.8582668  14.2921009  13.3299847  19.8908958
  14.8754005  12.3639240  20.8901596 -31.7208710  -9.1531649   4.9887791
 -31.2173748  -8.7343531   5.7119670 -31.8298855 -10.0648918   5.3439355
   2.8684785  28.3034496  -4.5576940   3.1695774  27.5790653  -5.1483483
   2.3480086  27.7406178  -3.9097588 -28.3546524  28.9547501  24.2800789
 -27.4336700  29.3042221  24.1204109 -28.7748566  29.7910690  24.4643841
  18.8344383  26.9286804 -19.2897320  19.2676735  26.0898991 -19.5030193
  18.1319675  27.0046730 -19.9680405  18.8764572  42.6019783  14.7516727
  19.7909603  43.0420990  14.7407055  18.3941898  43.2639542  14.1698837
 -41.7044868  31.1420727  12.1137810 -41.6598015  32.0312614  12.5299635
 -40.7722282  30.8814049  12.2680264 -11.0647154   5.9230132  41.8203926
 -11.2688036   5.3909745  42.5288353 -10.4799643   6.6124229  42.2240677
  26.0637989 -16.7328281  25.4593124  26.3209171 -16.4328365  26.3614998
  26.3072891 -15.8991823  24.9236317  40.5200348 -12.8146639  26.3729191
  41.2759705 -12.2096930  26.5456104  40.7407684 -13.1288691  25.5090389
  -0.9915743  15.2788057   4.8359313  -0.6340061  16.0534611   5.3026500
  -0.1546663  14.9803152   4.3805881  16.4677086   3.2899256  39.4462204
  17.3955727   3.0646603  39.7133141  16.0903969   2.3720572  39.2280350
  43.8442764  16.9066486  -0.2074696  43.3111115  16.2162933  -0.7008729
  43.3641891  17.7167816  -0.5810788 -27.3506680 -32.3880806  -9.6917925
 -28.1106739 -31.8850021  -9.3312473 -27.2425594 -33.0533638  -8.9894428
   2.6813624  -1.3770734  17.2423744   2.6028714  -1.5243165  18.1729412
   3.6454742  -1.1262681  17.0972557   1.6395634  46.8107681 -22.7434158
   0.8891471  46.1359825 -22.5623760   1.6763575  46.7664337 -23.6997566
  32.6687393  26.8481369 -17.5878143  33.2998276  27.2966461 -16.9637604
  31.8526840  26.7966251 -17.0581951 -31.8570938   4.8579602  -2.5729432
 -30.9169674   5.1268826  -2.4041820 -32.0613403   5.4371295  -3.3051081
 -27.2154636  24.6651230 -32.8882790 -26.6673241  25.4248524 -32.6491966
 -26.5843582  24.2891159 -33.6185875 -21.6010056  20.6974888  21.1165466
 -21.8074455  20.8481274  22.0739479 -20.6203060  20.7189865  21.1579075
 -24.6247864  30.9259796  20.9946194 -23.8987827  30.3910980  20.8243847
 -24.6559200  31.5446224  20.2257843  23.5124035 -28.6294270  -3.9177995
  22.6334114 -28.3257160  -4.1926098  23.5624790 -28.4428234  -2.9724133
  13.2192249  34.1609764  17.1692829  13.2041035  34.8585129  17.8451481
  14.0067215  33.6250343  17.5563107 -22.9447021  -4.1792040 -16.9208069
 -22.6508484  -4.9887767 -17.3935661 -23.8243561  -4.4339209 -16.5273018
  -1.8293014  10.0051594  15.6543274  -1.0417451  10.3946142  16.0304661
  -1.8441073   9.1472359  16.1876736  28.9723587 -23.6407166 -29.7979851
  29.3976059 -23.9563923 -28.9808006  29.3282928 -24.3445644 -30.4280663
  35.9956512 -16.9662113 -31.8804379  36.8029594 -16.4998283 -32.1595268
  35.5937958 -16.2411289 -31.3307209  10.9044619  11.8264122  40.1987915
  11.1658411  11.0449600  39.7073669  10.6742411  12.4562502  39.4575958
  -2.3457825 -31.8473167  32.4088593  -1.7776375 -32.5494347  31.9867535
  -3.0862250 -32.4092026  32.6831017  22.4188156 -30.9555492   3.9577336
  23.1113605 -30.4337463   4.3408656  22.1370049 -30.4154854   3.2122629
  19.6522160  16.5700016  31.6473083  18.8233871  16.2741508  31.2564754
  19.7861252  17.4133072  31.1728268 -21.5701828  23.2371178 -12.6031265
 -22.3642960  23.6387463 -13.0703058 -21.4689903  22.3776989 -13.1091309
 -28.3792896  -6.5329604  23.5095482 -27.3662453  -6.4714193  23.4827118
 -28.3968449  -7.4415436  23.9779453 -19.8166504   4.6382370 -29.0269871
 -18.9171791   5.0805373 -29.0855827 -20.3874283   5.4084592 -29.3053474
   7.6309342   7.8147688  17.4576340   8.5100374   7.7886691  17.0144024
   7.1705060   7.3708258  16.7525330 -44.3910599   8.7152739 -16.4578667
 -44.0477333   8.4210310 -15.5790710 -44.7030525   9.6233158 -16.2382603
   5.0338626   1.8945780 -25.6513233   5.3473763   2.6474965 -25.1233273
   4.0537758   1.9681267 -25.5725441 -39.7003021  -5.5911522  -0.6579139
 -40.2455215  -4.8648367  -0.2174972 -40.3481064  -5.9187078  -1.3080745
 -37.4409103  -1.8076839  -0.6524969 -38.1985970  -1.2375921  -0.6485511
 -36.8225746  -1.3253037  -0.0705694 -31.0880184  33.7230682 -23.4226379
 -31.6442909  33.5677948 -22.5820045 -31.8562088  33.5722961 -24.0244389
  43.5902061  11.4175806 -16.6930637  43.6642494  12.3858976 -16.6184807
  42.6891251  11.3373976 -16.9161415   4.7887969  -5.5517759  11.9386120
   3.8500907  -5.4138374  11.7868929   5.1860690  -4.7582760  11.5296221
 -26.7137966  -1.3848228  24.1628933 -27.4535809  -1.8217574  24.5465355
 -26.2944641  -1.0273376  25.0116291  -6.8167934 -23.6323242  14.2189274
  -6.1706772 -24.3528671  14.0861530  -7.6511188 -24.0181561  13.9364376
 -28.4115486  -4.3613777  15.9914246 -28.8484650  -3.6118135  15.5201874
 -28.9699841  -4.5020876  16.7269268  25.9017315  28.8600368 -19.0570240
  25.7835274  28.4425755 -19.9316044  24.9570961  28.9049149 -18.7524815
  33.1244392 -35.1519241 -15.3732023  32.2062721 -35.0740242 -15.5520611
  33.2431450 -34.5974350 -14.5569820  24.3445854  12.1861906  18.5748310
  24.5000668  12.9656668  19.1563988  24.9316330  12.3929682  17.8685474
  26.2510109 -25.5095291  -6.7448664  25.9424248 -26.3150158  -6.2472630
  25.3827724 -25.1011600  -6.8536634  -1.1875765  44.3651009 -25.0118256
  -2.1459675  44.4653893 -24.8100719  -1.0547262  44.6716003 -25.8825092
 -39.5839653  14.9925804  -1.8519276 -39.9632759  14.1238699  -1.9489858
 -40.4211655  15.4875441  -1.6892760  40.5381012  10.7487078 -13.6653004
  41.0814400  11.3409710 -14.2242508  40.8854713   9.8899345 -13.9524393
  -1.0725324 -30.1856327 -27.7633305  -1.7705598 -30.7035160 -28.1820526
  -0.3535971 -30.7617130 -27.6713333   4.2616372 -10.6512222 -33.6173248
   4.6817293 -10.0066118 -34.2489929   4.4968629 -10.1231499 -32.8060570
 -26.3786850 -13.2481785  -0.5752463 -26.4869232 -12.2759371  -0.6496786
 -27.1856976 -13.5519152  -0.1503833 -15.7059641   7.4444132  -1.4750627
 -15.7058764   6.8088274  -2.2048945 -16.5905743   7.3382931  -1.0687308
 -22.6419659 -19.7624855  -5.7028213 -23.4069576 -19.5545521  -6.3175058
 -22.5073395 -20.6875629  -5.9976096  14.8558788 -18.6033268  15.0436335
  15.7190008 -18.6470547  14.6100435  15.0935411 -18.4882298  15.9992199
  25.8143616  36.0986519 -23.0795441  25.1755714  36.4429131 -22.3710213
  25.1336498  35.4711266 -23.5505829 -40.6905861   2.2399755  16.1590977
 -41.5285416   2.6987953  16.0744972 -40.9797974   1.3687860  16.4230881
  23.0129833 -22.8058186 -11.1615496  22.5996189 -23.4052258 -10.4905691
  22.3180275 -22.5967407 -11.7498865 -19.2153187   0.4758136 -30.8494301
 -18.7990303  -0.3765902 -30.6294594 -19.2234478   0.8611286 -29.9298077
 -30.7952347 -33.7311974   2.7431097 -30.5870419 -34.5764236   2.3666754
 -30.2604656 -33.6553802   3.5302706 -35.4727402  18.1330013  23.1458530
 -35.1212158  17.2875595  23.4392452 -36.4213638  18.0545330  23.2334118
 -11.4108992  35.8034515  31.0367222 -12.0344715  35.7164078  31.7405739
 -10.8569584  34.9895325  31.1504459  -2.1343503 -21.0884590 -31.8150597
  -1.9380865 -20.7514114 -32.7582283  -2.4467916 -20.3248081 -31.3586121
   4.7274032 -22.0134125  -0.6092016   4.8861346 -21.4974918   0.2291896
   4.7722721 -22.9103050  -0.2495524  19.7699623  19.3719063  12.3787355
  19.4643650  20.2279644  12.6611433  19.8430710  18.8956203  13.2140579
  -8.2252197  -6.2936525  13.3910599  -7.3174720  -6.5704613  13.5867147
  -8.7378864  -7.1274529  13.3747139  22.8606300 -21.0872746  -2.8447185
  21.9660130 -20.8178024  -3.0839593  22.5876503 -21.8554268  -2.2388248
 -41.5332527   1.5417844 -13.6086626 -40.8878517   1.0830052 -12.9932222
 -42.0738983   2.0390580 -12.9748993 -25.2558212   4.2517886  28.2943459
 -24.2796288   4.3977423  28.2939796 -25.5447731   4.7348466  29.0367012
 -36.5043678   0.6806577  23.5468540 -37.3063431   0.9023627  24.0361233
 -36.2384644  -0.0515042  24.0565796 -13.7560673  33.0205345  28.2366219
 -14.1014557  32.1448822  28.3899212 -14.2721348  33.2775841  27.4147682
 -42.8977394 -23.6321869 -19.4882221 -42.3002243 -23.0826759 -18.9361057
 -43.6101379 -22.9912987 -19.7021141  -6.5620937  33.2738876  -7.5768261
  -6.5412064  33.3536987  -6.6312928  -5.8206611  32.5761032  -7.7300544
 -11.1506729 -20.1177158  10.6759233 -10.1332226 -20.0825558  10.8007421
 -11.3044252 -21.0382156  10.6089439   5.8568645 -13.8700008  27.2228451
   5.9447742 -13.5439606  26.3213348   5.7670465 -12.9674387  27.6933746
 -15.2943859  13.8354092 -37.5897903 -15.2396803  14.7869663 -37.7610931
 -14.3665581  13.7094975 -37.2215195   6.9345536  -3.9828017 -36.3436165
   6.5610905  -3.6677523 -37.2418747   7.7084150  -4.4938965 -36.6873665
  16.7147293 -31.4093876 -29.8682690  17.4800892 -30.9060688 -30.2891388
  17.1797085 -32.2280464 -29.6969948  10.1747789 -22.2206669  42.9095612
   9.7512703 -22.3802242  43.7803841  10.5041847 -21.3126602  43.0098267
 -23.5304222  24.7833595 -36.3230057 -22.8158054  24.7419281 -35.6677551
 -23.2899551  23.9736233 -36.8527870 -35.6634865   3.5036082  -2.0398369
 -36.4590721   3.2199161  -1.5404499 -36.0470276   4.1472416  -2.6617982
  -4.3845134  40.4314613  -6.4902654  -4.7715111  40.7742004  -5.6330571
  -3.4855623  40.8257942  -6.4428983  -4.2944355  26.0694199  40.8036118
  -4.9122677  26.3879395  40.0932732  -4.8135233  26.2948341  41.6042290
 -44.4553452   0.6674527 -20.3823032 -44.3931007   0.2527364 -19.4748745
 -43.6585770   1.2374851 -20.2499962   7.2130327 -27.5325394  31.2807636
   7.3672972 -27.9733391  32.1195679   6.3086042 -27.8769798  31.1218624
  14.7310629  -8.8061237 -35.9524612  14.9955759  -9.5629473 -35.3157349
  15.4117308  -9.0543938 -36.6721954  -3.9085476  33.8020134   5.1079502
  -3.5701113  34.6961365   5.1050148  -4.1224899  33.6377411   4.2191968
   3.5099223  27.6034966  12.3942404   3.8868263  27.5742321  11.5029602
   3.9908829  28.4099388  12.7636614  -5.5011210  14.0856018  -8.1215496
  -6.0608397  14.8863201  -7.9385452  -5.3091512  14.2528324  -9.1104002
 -37.1458588  30.0555305   6.2928953 -37.4964027  29.5199165   5.5173063
 -36.4054298  30.5078487   5.7335720  33.4055710   0.8197790  10.5556269
  34.3090096   1.0873114  10.8706284  33.4613228   0.6795565   9.6265888
 -32.6504021  27.5126743 -11.1113634 -31.7614460  27.6041622 -11.4600754
 -32.6382790  26.6364441 -10.6844559 -41.0229950  -3.1354599  21.4526138
 -40.1175156  -2.9272156  21.0623684 -40.9897766  -2.5251689  22.2000198
   8.7381096  -7.0442991  51.6154137   8.5429096  -7.6190581  50.8435059
   8.9591637  -6.1788721  51.2260361  14.2444506  45.1671791   7.6832190
  14.4319487  44.2417145   7.5705266  14.2230120  45.5625534   6.8006563
 -38.2745743  29.9019699 -12.1456566 -37.4092293  30.2216702 -12.5554237
 -37.9186668  29.6884003 -11.2355556  38.1710434 -24.2692795  13.2588806
  38.7410202 -23.7809353  13.8994837  38.6341667 -25.1144390  13.2416763
 -16.9563046 -10.1292467 -31.5773754 -17.5654411 -10.5356293 -30.8555641
 -16.9642906 -10.9268723 -32.1930733  20.3350143  48.4146194  11.0630989
  20.7323608  47.9857216  11.8250580  19.5700970  48.8461380  11.3899097
  22.0742874  23.6763897  -2.2984269  21.0994301  23.8055897  -2.2376335
  22.1335392  22.9128132  -1.6762719  44.2671776  23.4283085  -3.2659283
  44.6632347  23.4480343  -2.3574147  44.2776031  24.4338684  -3.4348543
  21.1597157 -34.4503441 -29.7748203  21.5861435 -33.6609802 -30.0079346
  21.7654037 -34.7547951 -29.0382061 -35.2842102 -12.9074316 -27.1990185
 -36.2202835 -13.0799685 -27.6338310 -35.2168388 -13.7351837 -26.6946869
  42.1154976 -22.7083282 -21.4111824  42.1493988 -21.8452339 -21.8237991
  42.8008614 -22.5662212 -20.7184792  35.5711861 -12.6660709  10.1061153
  34.6197510 -12.6952791   9.8916683  35.7142487 -11.6807451  10.1396599
  -1.8290848 -12.5555267   2.1403375  -2.4312932 -11.7893991   2.4008098
  -1.1627634 -12.4163866   2.9239492  42.8690681 -13.0924435  28.2157288
  43.7130737 -12.6807289  28.5920162  43.2724571 -13.7730541  27.6396847
   9.9240131 -30.6488400 -18.3886108   9.2269497 -29.9974632 -18.5839176
  10.0168266 -31.1602383 -19.1950512 -39.9989777   1.5772341   9.2916584
 -39.5020599   1.0298717   9.9128695 -39.4722862   1.3893136   8.4745655
  26.0102901  13.3845387 -32.3068962  26.2082005  13.6876783 -33.1858406
  26.8731174  13.1814508 -31.9174404 -20.2638111 -23.3685722  -1.2404784
 -20.9289684 -24.0755825  -1.2800238 -20.2323513 -23.2035522  -0.2606359
  -8.0877867  28.8230553  18.0751133  -8.7179766  29.3270874  18.6057110
  -8.1955595  27.9598541  18.4294815  -7.9054208   6.4997568  43.5794907
  -7.1170316   7.0929718  43.8535042  -7.6369038   6.3058777  42.6407585
 -39.3589745 -27.5883236  13.7412348 -39.9701309 -26.9113178  13.4431009
 -38.7587166 -27.6758327  12.9731989  -4.8973007   5.4663286 -41.4348488
  -5.0897398   5.6992226 -40.4507828  -3.9175112   5.5380068 -41.4683342
  24.2539520  17.5776997 -14.3981314  24.7700043  18.1132736 -13.7724285
  24.7100220  16.7286987 -14.3661547 -37.3033447   2.1069405   3.3836138
 -37.9231033   2.3260083   4.0712171 -37.6592789   2.6201754   2.6161010
  24.0441074  -7.0353484 -45.4809303  24.8523026  -7.5267973 -45.2372971
  24.4234695  -6.1266313 -45.5718002 -11.9563932  34.9650688  -2.8415225
 -12.5078011  34.3430595  -2.2575541 -12.6835623  35.5427437  -3.1285064
 -25.0544891 -17.3491650  25.5519066 -25.8487949 -17.8998737  25.3739357
 -24.8895798 -17.5741711  26.4918575 -32.8602142  12.9456186 -10.9904089
 -32.2900848  12.7922897 -11.7706594 -32.2208710  13.2076511 -10.3032932
  -4.8435779  26.1289120 -21.7052803  -4.5508227  26.7696323 -21.0268326
  -5.8151340  26.0471325 -21.5203400  23.1615486 -36.1242676  10.7167168
  22.3277760 -35.8813286  10.9938431  23.7119522 -35.9708023  11.5391226
 -16.9463348 -37.5720024   3.7828028 -17.2467041 -37.6118050   2.8240819
 -16.0935097 -37.9692192   3.7216735 -25.7312698   7.8538842  -1.3519520
 -26.3790035   7.5549235  -2.0042906 -25.8482800   7.1620574  -0.6798941
   6.0277944  20.9663658  27.5632648   5.8957067  21.9161282  27.7011108
   7.0216355  20.9620037  27.5565243  -8.6425877  35.9256134 -28.4884930
  -7.9101005  35.9503708 -27.8980045  -9.3681936  35.4682045 -27.9962521
  -1.5102326  26.9218216  23.3914299  -1.9677559  26.1405849  23.7757244
  -1.9329106  27.6097088  23.9193535  27.2754211  30.2925186  12.9477711
  27.3568993  29.3821888  13.3435469  27.7375584  30.0348473  12.0647316
  19.1282787 -38.2165184 -27.1271534  19.1822834 -38.3619194 -28.0829315
  18.6177387 -37.3940659 -27.1395473 -34.9224777  15.8907585 -11.7292919
 -34.5104294  16.8061848 -11.7211657 -34.5746231  15.5738363 -10.8492756
  29.2706547  34.3784103  -0.2656489  28.5512867  35.0593796  -0.2767306
  28.8260765  33.7279282  -0.8377835  10.8902760 -19.0816765  28.0117664
  10.0609026 -19.3759975  28.3841534  11.4685917 -19.2356510  28.8194160
   7.4409151 -11.0296049  48.7772560   6.9122882 -10.3022423  49.1746292
   7.4485793 -10.7917452  47.8386116  32.4205093  -9.1787815  29.5579758
  31.5902863  -9.0440207  30.0722408  32.7291908  -8.3141785  29.4130840
  14.6552734  -5.4965615  20.4284210  14.8422441  -6.2480540  20.9458084
  15.3250504  -5.5893664  19.6737938 -13.0286646 -44.6085510  21.1635914
 -13.9236240 -44.2030487  21.4531307 -12.4068127 -43.9111214  21.5348549
 -13.8377714  15.2560482   5.6288404 -13.8020716  16.0438004   6.2303133
 -14.8077765  15.0915623   5.7095041  -7.7888808  23.1236248 -18.6686726
  -8.3016710  22.4867992 -18.0656796  -6.8578372  22.7371159 -18.5116196
 -14.7467451 -32.8449249  20.0239658 -15.0682774 -31.8945885  20.1947575
 -14.6926641 -33.1190186  20.9475727  -3.4073696   5.8710551 -32.5123367
  -3.4208405   6.8489232 -32.6085129  -3.9935806   5.5829077 -33.2325516
 -38.2955017 -24.5122795 -12.7395573 -37.4455948 -25.0371113 -12.8304672
 -38.8878212 -25.2225513 -12.4198008  23.1952095  39.0047798 -13.8016233
  23.6947441  39.3665657 -14.5440311  22.7214451  38.2396507 -14.2642231
 -31.3501129  10.8653326  11.5522051 -32.0284157  10.6320515  10.8304358
 -31.9767742  11.2125578  12.2239170 -40.8131981   4.9895144 -35.9721794
 -40.5829544   5.4621520 -36.8094788 -40.4041405   4.1053538 -36.1946602
  16.9643745 -24.0638905   2.2071979  17.0798950 -24.1111183   1.2529898
  17.7968235 -23.5436802   2.4582314  13.8899355 -36.7022476 -37.6751328
  13.4968653 -36.9374275 -36.7826195  14.7945042 -36.4781647 -37.4307899
 -17.6885357 -27.9756584   6.5797992 -17.1038666 -27.6287708   5.8452821
 -17.0562706 -27.8966599   7.3377290  -6.5550113  21.2491856  43.6972771
  -6.6075025  21.7084846  42.8343582  -6.5463362  20.2996197  43.4448090
 -16.9400520 -29.4641342 -24.3241901 -17.5043526 -29.2368526 -25.0782013
 -17.2375603 -29.0020580 -23.6274033 -12.7957954  39.7520599  -6.2569180
 -13.0821819  40.7059822  -6.3123593 -13.3095798  39.3425941  -7.0241199
 -37.7717438  21.3293209 -11.0394964 -37.6392593  22.2045822 -11.5130997
 -38.2195854  20.8714237 -11.8633528 -27.9941635  20.2276230  33.0580940
 -28.0722027  21.1918926  33.3370781 -27.8598557  19.8774395  33.9904976
  -3.8224177 -44.4183350  18.2227669  -4.6955237 -44.5368500  18.6210556
  -3.5147963 -43.6894226  18.7706871 -25.7892323 -14.8173895 -29.6103115
 -26.5058575 -14.3088379 -30.0354118 -26.3613987 -15.5155296 -29.1648216
  28.9438019  -0.4843820  40.6394691  28.1605930  -0.5255165  39.9863396
  29.1272297  -1.4427056  40.8099823  21.8221951  -2.8464251 -14.2120686
  22.0527058  -3.1136651 -15.1290035  20.9693775  -3.3407676 -14.1127300
   9.0236168   6.8191285  36.3732033   9.9428101   7.1581025  36.6447792
   8.8335571   6.1819024  37.0428658 -41.4007111  -0.3044872   1.2795690
 -40.6970100  -0.6690427   1.8397224 -41.8602562   0.2959731   1.9509473
  -1.2985559 -15.1040440 -10.1667833  -2.2220023 -14.9803705 -10.5278263
  -0.9722098 -15.7192249 -10.8461199   7.2766433  40.7044792  14.5332298
   7.9271603  41.4328918  14.6857214   7.7968078  40.2424965  13.7773247
 -30.3064766 -19.6004486  17.9582119 -29.8265209 -19.1914368  17.2148151
 -29.8410511 -20.4496536  17.8918247  25.1546974  15.4964418  27.0397091
  24.6202984  15.7615662  26.2573872  24.6201725  15.9588079  27.7875805
 -22.3965092  -8.1416864  18.1910992 -22.7914619  -8.7053928  17.4572353
 -22.9958839  -7.3745732  18.1850491  33.3981667 -12.1828117   8.3170176
  34.1346130 -11.6797523   7.8738861  32.7303429 -11.4792128   8.3712587
  41.7468605  14.4644985  27.8775101  41.7214432  15.4171762  27.5480804
  42.7158127  14.3579788  27.8389378  -7.2210689 -22.4901047 -37.3011932
  -7.7742605 -22.8205776 -36.5807457  -6.5980549 -21.8813572 -36.7747154
 -43.3374100 -15.5254545  23.8640747 -43.1794319 -15.7902555  24.7847881
 -43.3161621 -14.5801697  23.9611626  39.2321396   8.8127537  26.2570705
  38.9191551   9.0538740  25.3854675  39.0203743   9.6386433  26.7436752
 -22.8940563 -14.5003872 -25.7657013 -23.7803440 -14.7661858 -25.5870628
 -22.9190044 -14.5562754 -26.7944508  25.4096584  19.4116898  -8.7905407
  24.7178383  19.5280685  -9.5223436  26.0019283  18.7916832  -9.2411528
 -43.5630150  14.3714638 -25.0284996 -43.1019135  13.5307055 -25.2276287
 -42.9825821  14.8116302 -24.3866768 -43.5545425  18.4959316   6.8560681
 -43.3542480  19.3602562   6.4633708 -44.4685936  18.3736839   6.5455155
 -16.5931759  14.0413866   2.7790926 -16.8925686  13.1926041   2.4619880
 -17.2174053  14.6741772   2.3937895 -14.6575985   6.6859355 -43.3826447
 -13.8145075   7.0043278 -43.0764999 -14.9280481   7.4154072 -44.0156288
 -23.5621490  -0.1507892  36.5014191 -23.6441078  -0.3481591  35.5440216
 -24.1401272   0.5843698  36.5224724 -17.5625973  12.4270954  11.1696262
 -16.7090893  11.9938011  11.0616846 -17.6150761  13.0424461  10.3949089
  16.8148460  -3.7007899  39.2153893  15.9575701  -3.3902514  39.0721092
  17.2560825  -3.2167170  39.8947372  23.8791237 -12.2683268 -29.7351055
  24.3113899 -13.1580048 -29.7968216  24.2874947 -11.9280672 -28.8663998
   9.1707668  -9.6938009  13.2218370   8.8699474  -9.2985983  14.0253744
   9.2481709  -9.0021553  12.5498381  -9.1567669  35.7258987  20.9938908
  -9.3785753  36.0683975  21.8910599  -8.4533310  36.4067230  20.8106060
  17.0052605  13.5009155  -8.1987162  16.8818684  12.8029861  -7.5766101
  16.0323257  13.5496349  -8.4812298 -13.3919573  -3.0073714  24.4414005
 -13.7800074  -3.4774566  25.1952991 -13.3117361  -3.7244155  23.7917786
 -35.1442299 -31.4331226   3.8000975 -34.3500824 -31.9357204   3.4120610
 -35.2157745 -31.9372425   4.6463742  28.3575420 -13.3930998 -39.2548904
  28.8804035 -13.9402876 -38.6058617  29.0215969 -13.0770006 -39.8782692
  42.1892891   2.4932559 -12.3981714  42.8089371   1.7547678 -12.2098007
  42.2006111   2.9260173 -11.5371246  22.7033749  28.0582829 -22.6046028
  22.0584011  27.7452641 -22.0393696  23.0214252  27.2741585 -23.0999947
 -32.4297600  -6.2210374 -25.1576385 -32.0060501  -6.9356337 -24.6705952
 -32.6493111  -5.5269752 -24.5272942  33.8753929 -34.7992706  24.1880417
  33.7788658 -34.2405663  23.4331589  33.2476616 -34.4387817  24.8482895
  -3.1389022  32.4643784  20.8746490  -3.8677366  31.8093109  21.0143871
  -2.4046247  31.8488426  21.0290813  15.6109705   0.6587623  38.9278946
  14.8845692   1.2261951  38.5331345  15.1094255  -0.2244373  39.0424004
  -1.6714095  16.4476242 -20.1121025  -1.4672730  16.6407452 -21.0576210
  -2.1903334  17.2125759 -19.9051075  21.2746964  -1.3077701  43.7835503
  21.1792374  -1.7433581  44.7054176  22.0201797  -0.7113733  44.0084610
 -16.3453102  -9.5141230  22.4443684 -16.2802868 -10.1492090  21.6226997
 -17.1912270  -9.0491629  22.1437397 -35.9173317  13.6964712 -20.8554096
 -36.5844040  13.1733685 -21.3797226 -35.8315201  14.4529600 -21.4731770
 -12.6060572  -7.0744438 -38.4687233 -12.1489429  -6.2488093 -38.6028214
 -13.1937504  -6.8160892 -37.7557030  35.5644341 -22.8986855  26.0987873
  35.5817680 -23.5681763  25.4296780  36.0496330 -22.1821194  25.6699276
  14.2156239  18.2754517  28.0599327  14.9230728  17.5745392  28.1760445
  14.4704428  18.6450996  27.2064114  14.8290348  -4.4399204  49.6694717
  14.2243452  -5.1743317  49.4817772  14.9402552  -4.5982509  50.6453438
 -36.1043816   2.8193467 -18.4205303 -36.6600838   2.3808541 -19.1285572
 -36.7261162   2.5687325 -17.6665707  13.0345764  10.6563625  17.3867779
  12.7980270  11.0252209  18.2471161  12.8128700   9.7454004  17.4289799
  -0.3401998   8.2581930  -8.1007929   0.4065290   8.8160000  -7.7159743
   0.0517467   7.4027009  -7.8377709  11.2684488  12.0020819 -18.2474442
  10.6758242  11.7414732 -18.9787960  12.1383743  11.9501190 -18.6662827
  39.5157204  31.2880116 -13.5896749  39.3721390  31.1826344 -14.5379543
  38.5544052  31.3424892 -13.3070307  33.3461266 -16.1432400   5.0999022
  34.2660828 -16.0413704   4.6930270  33.6029472 -15.9659204   6.0212445
 -25.8818035   8.3692541 -14.1649990 -26.6321030   7.7087398 -13.9918308
 -25.6980076   8.0988159 -15.0840769  27.8204002 -26.5422478 -16.3026142
  27.8838425 -27.0097733 -15.4014063  28.6649666 -26.7039852 -16.6708336
 -22.6216068  -6.7745366  32.1386566 -23.5513077  -6.5471864  32.2653084
 -22.2350903  -6.0264463  32.6616249  12.2606630  26.8762608  -8.9286175
  12.3111401  26.7093830  -7.9923882  11.4427319  26.4312820  -9.1739378
 -39.1790161  21.4646816  -4.4516907 -40.1024628  21.3189678  -4.2045031
 -39.1310844  20.6832962  -5.1242285 -18.0092564 -10.8656425 -26.2841568
 -18.3739986 -10.6023617 -25.3922939 -18.7443314 -11.4926386 -26.5299244
  37.8859177   1.6970342  24.3978863  38.2974930   2.2013776  23.6696148
  38.3858566   1.9572643  25.1631622 -28.3702221  10.9841022  18.5921745
 -29.0807571  10.7818689  17.8880100 -27.9622288  11.7283916  18.0146427
  26.5812550 -27.7516899  -0.0232607  26.7332325 -26.9732437  -0.6089194
  26.5085506 -28.4625816  -0.6842924 -10.4091673   4.9068379  38.2700386
  -9.7982960   5.1599488  37.5544357  -9.8688288   5.0898495  39.0452080
 -27.2686157 -30.4258823 -13.4522715 -26.8179607 -29.8335514 -13.9706240
 -27.7245026 -29.8506451 -12.7770948 -24.3361549 -16.0205536   5.7371168
 -24.9243374 -15.3405409   6.1119614 -23.6388531 -16.0282326   6.3945813
  44.6526566 -17.2473297  15.8505869  44.0187721 -17.5393219  15.1593351
  44.2248802 -16.4775295  16.1712112  27.0247688  29.3359661   2.6485341
  26.6518440  28.4859371   3.0030618  27.4201393  28.9624710   1.7833437
 -38.2948647  16.7238865 -12.7680922 -38.0447655  15.7567520 -12.6505442
 -38.8019295  16.5900784 -13.5810785  30.6683311  -6.3591628  -1.9259561
  30.8524399  -6.8560286  -2.7345264  29.6345921  -6.3261151  -2.0001326
 -16.8892250   1.5499334  43.8353119 -15.9540119   1.3005115  44.0874443
 -16.6545906   1.9375221  42.9734802 -23.0631599 -21.1388302 -12.2805500
 -22.1931896 -20.7737236 -12.6193085 -22.8879910 -20.9083138 -11.2753143
  43.8671989   0.7371769 -14.8936548  44.5824928   0.0584525 -15.0455132
  43.0750237   0.1191803 -14.6594496   9.8387461  -8.6920872  -2.8549831
  10.2103014  -8.2807665  -3.6918218   9.4599562  -9.4682007  -3.2903717
  40.0273781  10.9612856 -24.0725021  40.1986198  11.9231386 -24.2100735
  40.8806000  10.6877556 -23.6837635 -19.9663925  28.5121536 -31.2464142
 -20.6849766  29.1494541 -31.4027653 -19.2350254  29.0955334 -31.0289326
  -0.0944123  39.3937836  -0.0551348   0.4418312  39.9733276   0.5296288
  -0.4077203  40.1749268  -0.6427303   6.8887606   8.8493919 -10.8780994
   7.6829019   8.6084776 -10.4018908   6.7393785   8.1109505 -11.4560871
   6.2358885  -2.8144009 -29.8491497   7.1119986  -2.5280886 -29.7273045
   5.9597402  -2.2160540 -30.6167679 -10.7378340  21.3786583 -10.7267971
 -10.2780561  22.0303822 -10.1961079 -10.0629768  20.6196213 -10.6651058
  -7.3388548  28.8339634 -11.4339705  -8.1083231  28.8012733 -12.0756512
  -7.0695601  27.8376617 -11.4455500  16.2262917 -25.7000065 -28.7262268
  16.9883022 -25.4860497 -28.1365738  16.7174129 -26.1251240 -29.5006104
  15.2261953  17.4869881 -29.5139751  15.3426771  18.1459618 -30.1851826
  16.1151447  17.3706493 -29.1112862  10.2729311  12.3965015 -23.8753910
  10.7645597  12.1909294 -24.6843719   9.4691687  11.8413525 -24.0605030
  14.7307186  -2.2833250  -4.3596745  15.1815882  -1.4673659  -4.6677685
  14.5886507  -2.6401443  -5.2774839  -4.1893291 -26.0929661 -15.1147041
  -3.5779374 -25.5276833 -14.6100664  -4.6437721 -25.4322071 -15.6496840
  38.7557259 -29.4720688 -21.0157795  39.1425819 -30.3499451 -21.2194233
  38.0110512 -29.7282848 -20.4418659  10.5370293 -34.1549911 -10.3073034
  10.4785471 -34.8760376  -9.6257935  10.8718786 -34.6821442 -11.0500841
  21.3650188  30.2795601  19.5239201  21.0343456  29.3086452  19.4929085
  22.0310135  30.1723099  20.2092915   2.9745452 -24.4750977  40.2518234
   3.6682642 -23.8359051  40.0826950   2.1540236 -23.9205971  40.1456375
 -12.2540016  28.4223690 -10.8835487 -12.6257353  29.3354950 -10.7028360
 -11.6371450  28.3738480 -10.1431894  -9.1670065 -34.6523819  -2.8250639
  -8.9751921 -34.2577934  -1.9284606 -10.1338243 -34.7489662  -2.7101924
 -30.8953304 -26.5589046 -19.9826832 -30.0324078 -26.9066124 -20.2181759
 -31.3959732 -26.7406883 -20.8479309 -22.1007862  13.7321291 -44.6803665
 -21.7928886  12.8846416 -45.1711426 -21.2489967  14.1328125 -44.5037842
 -29.7958527  31.0551414 -10.2362976 -29.0171547  30.8376980  -9.6463556
 -30.5031948  30.7383900  -9.6175928  23.5193691 -11.6111746  34.9901962
  24.3112030 -12.2734032  34.8348656  23.9990845 -10.8846397  34.4303131
 -33.5215988 -16.2477436  13.9627972 -34.2902832 -16.6508675  14.4796257
 -33.8616905 -16.4020844  13.0362663   9.6515999  -9.0213146   7.2088995
   9.4843845  -8.5639935   8.0931253   8.8177137  -9.4106445   7.0686707
  -2.9666979   0.4197934 -26.3925419  -2.7071359  -0.5263755 -26.4713802
  -2.9259923   0.6223762 -25.4422817  12.0961084 -21.9839306 -16.6571579
  11.1998444 -22.2035561 -17.1016750  12.6501894 -21.8600693 -17.4960232
  -7.9755187  17.8297482   1.2046063  -7.7302680  17.2328701   1.9209958
  -8.9117384  18.1154785   1.4856650   1.0450770  -9.0342741 -15.0946102
   1.0384732  -8.2630072 -15.7216177   1.5203499  -9.6634512 -15.7340879
 -17.3099594 -46.8464165   2.7434716 -16.5279789 -46.3567276   3.0977397
 -17.5671959 -46.2117004   2.0559893 -16.6154003 -10.2107687  -2.3667331
 -16.3043041 -10.4831409  -1.4484781 -17.6137447 -10.1608706  -2.1341374
  15.9219112   7.3375149 -18.7834759  15.2391109   7.8169470 -18.2365856
  15.4930639   7.4901848 -19.6806164  23.8242245   8.8344088  -9.9921265
  23.0422363   8.9838943  -9.4714155  24.1943550   9.6987782 -10.1698780
   3.3592730  19.5027142  33.2274551   3.0061178  18.6740284  33.5875969
   4.3372593  19.2721996  33.2731438  26.2742004 -22.5156231  -2.2673621
  25.9008980 -22.5864296  -1.3548547  27.1386909 -22.9269505  -2.1407189
 -18.6793270  29.4095955  -2.0583882 -19.3956547  29.0928555  -2.5614073
 -19.1775799  29.9537621  -1.3669269  40.6054420  -7.9268622 -18.6135654
  40.1924820  -7.0287776 -18.8842506  40.7939835  -8.2471628 -19.5459099
  12.2602787   8.5327644 -31.4407673  11.7749624   7.8091083 -31.0409946
  13.1220169   8.4108820 -31.1169987  20.2371883   1.0061300 -42.7819443
  20.9602623   0.3656953 -42.8505440  20.6737461   1.7414722 -42.3296432
  20.8021603 -37.3169518 -11.5658951  20.6610718 -37.7350769 -10.6567249
  21.6744556 -37.6495819 -11.8220987 -18.9148445  25.8754940  -1.6204658
 -18.1917877  26.4777546  -1.8885288 -18.4780731  25.1931076  -1.0481889
  19.3609657 -12.5132790 -37.4743423  18.9631691 -12.7321301 -36.6046791
  19.5912876 -13.4164639 -37.7695923  31.5626163 -17.9627628 -23.4892960
  30.9607124 -18.5706425 -23.1178246  32.2433586 -17.9705429 -22.7471104
  -5.2175074 -15.4615068  34.4820442  -5.6594100 -15.0857477  35.3081055
  -5.5681777 -14.8964386  33.7909241  -1.2635971  42.6631737 -29.7393475
  -2.1826584  42.2510490 -29.5963707  -1.2758911  43.3262367 -29.0444012
 -15.5499153   4.2754631 -34.9855614 -14.9149284   4.8125758 -34.4700394
 -15.2589350   4.5547681 -35.9001732   5.9086914  11.2052975   7.3226299
   5.7942681  12.0856562   6.8514280   5.3276792  10.6567383   6.7218738
 -27.5554523  13.2571096  32.6137733 -28.2706490  13.2827044  31.9522953
 -27.9667492  13.6911736  33.3649445   7.5804667  41.8917084 -19.2964458
   6.8667765  41.8717651 -18.5895023   7.5205708  40.9662514 -19.6572304
  18.1309795 -17.6597328 -24.5339966  17.8697586 -18.5191860 -24.3094387
  18.8769264 -17.4810867 -23.9237995  40.2545471  -7.9370823  22.4788151
  40.7934647  -7.1273427  22.2171040  40.3426323  -7.9115748  23.4305725
   0.8502763 -16.5094032 -16.2342262   0.9275580 -17.2771645 -15.7536926
  -0.0747449 -16.2566280 -16.1885643  36.0841789 -13.4529524  30.7936363
  36.5226936 -14.3211355  30.6789970  35.9478836 -13.1301222  29.9000435
  -6.0586567   4.5793872  42.3221893  -5.3832951   5.2915468  42.0952263
  -5.4943600   3.8103352  41.9800377 -36.5777626  -3.8940763  20.2697544
 -35.5662804  -3.9226232  20.3025341 -36.7354164  -4.1835852  21.1796379
 -34.2125931  -9.0948009   7.0318670 -33.8854523  -9.8736029   7.5133595
 -35.0877686  -9.4723730   6.7054453 -34.4650841  24.9092236  23.4719639
 -33.9122276  25.5304298  22.8128986 -33.7769203  24.6744404  24.0968761
 -26.5724411  27.5675144   1.1951826 -27.3961391  27.6825886   0.6327908
 -26.5359745  28.4430199   1.6525843  33.8087540  16.4106655   8.0647888
  33.0836029  17.0416565   8.0401678  33.5321808  15.7786999   7.3934102
 -13.8372355 -21.2334023  28.8370361 -13.7490444 -20.5679893  28.1228809
 -13.9028511 -20.6257954  29.6519299  -5.2148361 -11.6994467 -33.8368607
  -4.7335515 -12.5498533 -33.8314285  -4.4419870 -11.1271620 -33.4967766
  33.2727318  35.6854172  -4.0153995  33.0629692  35.7128220  -4.9427423
  32.5784683  35.0733833  -3.7483518   3.3732231  -8.9565916  26.3790169
   3.4755590  -7.9908347  26.2827930   3.7748334  -9.2784529  25.5331860
 -38.7370720  17.7671890  -4.0450168 -39.5423050  17.3755207  -4.5068893
 -38.3167267  18.2002468  -4.7969222 -16.5746613  -8.5302401  18.2428379
 -16.4913883  -9.4843349  18.5050411 -17.4922600  -8.3151903  18.4551620
   0.9007440 -18.4854336 -31.2466850   0.1672518 -18.0636005 -31.7382965
   0.3593951 -19.0364132 -30.5476131 -25.3543530 -18.4912224 -17.2370205
 -24.5848732 -17.9767418 -16.9483604 -24.8956871 -19.3714981 -17.3895702
  19.5455170  31.6821423 -10.6125326  18.9043674  31.9877625 -11.3235502
  18.7972317  31.2939358 -10.0227890 -20.8712311 -36.3866653  -2.0947435
 -20.6490726 -37.0701866  -2.7054582 -20.1358318 -35.7977486  -2.1708453
 -39.0233040  22.6562347  27.6012650 -39.5975189  21.8617172  27.3912792
 -38.6091118  22.6945133  26.7052002   8.8037901 -37.8936501  18.1837406
   8.9350863 -38.8455582  18.0236721   8.0269728 -37.7605171  17.5613670
  26.3194542   9.9132595  23.0534725  25.8633347  10.7931185  22.9210529
  25.7521191   9.3301659  22.4727535  -9.0271149  -8.6524267  -0.4831282
  -9.2196150  -8.4718390  -1.3964559  -8.4355631  -9.3980799  -0.5231078
 -21.1588383  -2.8626857 -36.1320267 -20.7646999  -2.0390630 -35.7586021
 -20.5110302  -3.5298152 -35.7933273 -32.9444580   8.4073019 -32.3852119
 -33.7845078   8.7774134 -32.0999947 -32.3554001   9.2179546 -32.4641380
 -36.9108620   8.2442284 -29.0179882 -37.8227844   8.3866186 -28.7537289
 -36.4793434   9.1200857 -28.8907585  34.0355225 -10.8244238 -34.1447067
  34.8794518 -11.2241011 -34.5127907  34.4442978  -9.9860401 -33.8121109
  -1.1894366 -40.4810829  -2.9740376  -1.4834347 -40.9918823  -2.1890092
  -0.4389133 -40.8941612  -3.2877715 -35.1849251 -27.2805862  10.6201010
 -35.7003860 -26.6133957  10.1253567 -35.6040382 -28.1135826  10.2687550
  31.7079067  35.8824615  -0.7848572  31.4728317  36.0532837  -1.7528598
  30.9122887  35.3479576  -0.5803946  20.0063629  30.1172752  25.8983746
  20.0005856  31.1136951  25.8764362  20.9427509  29.9317074  26.0220928
  11.4872179  37.4927597   1.2840341  10.7872553  36.9173660   0.8764209
  11.0140419  37.8725586   2.0692434 -14.2506218   8.1057034  43.2546577
 -14.7630472   8.9177322  43.1701393 -14.6872711   7.5962796  42.5544434
  28.4697380  -1.6686771 -11.8278341  28.3233356  -2.5769198 -11.5754690
  29.1990490  -1.7637600 -12.4913826  36.5048485  23.5935459  14.1304770
  36.3669014  24.4875507  13.8235359  36.1221695  23.1092319  13.3634510
 -35.1228600  22.8674870 -12.4237328 -35.9425201  22.5240974 -12.7964792
 -34.4918900  22.9676075 -13.1061220  14.3396597  -3.6860721  37.1486282
  14.6260900  -3.3819172  36.2644043  14.1735678  -2.8404808  37.6374702
 -42.4148064  -3.0077362   5.0443311 -42.3701820  -2.0524783   5.3010330
 -43.4259071  -3.0216048   4.7827549  21.8127460  -2.2997777  41.2632561
  21.9256706  -1.7089508  42.0434151  22.7456894  -2.2603865  40.9154778
  19.0449600  26.3390121  -3.1183834  19.2666073  26.2358265  -4.0700235
  19.1529732  25.3609238  -2.8508122  -4.6521039  20.0859833 -34.3165054
  -5.4978037  20.1233196 -34.8590736  -4.0913525  20.6749706 -34.9128990
 -39.9967308  -4.7146583 -21.6157475 -39.9852753  -4.6985464 -20.6796036
 -39.8441200  -3.8115537 -21.8615913   2.4850607 -12.2877674   2.0163202
   3.3847446 -12.4904976   1.7403623   2.4965756 -12.4529400   2.9611511
  19.5896950 -22.6826305 -39.2193222  20.0004482 -22.8521023 -38.3192787
  20.1327705 -23.3604145 -39.7217026  11.6185684  27.6647701  -5.8966784
  11.8390989  27.3302078  -4.9920020  11.8377905  28.6003857  -5.8586073
  24.1504707  30.4450912  18.5603962  23.6354713  31.1688595  18.8947678
  24.2025833  30.7093945  17.6300831  18.6198444   9.1765575  -2.7432156
  18.2213650   9.8944883  -3.2587681  18.7391930   8.5674181  -3.5176184
   7.6518469  -8.7326813  43.9271164   7.1284232  -8.4208126  43.1676407
   7.3380446  -9.5975513  44.0687866  21.8035698  19.4552574   3.3249626
  22.6357174  19.0846291   3.5694275  21.6757107  20.2579708   3.8383632
  16.9087200  10.8306427 -27.5073757  16.8398476   9.9785957 -28.0420837
  16.1848450  10.6696835 -26.8786755  39.2047424  22.4602566   4.8535662
  39.9334259  23.0824833   4.5629988  39.0141029  22.1314201   3.9499073
  12.7424335  -6.9253454 -36.5417442  13.4007521  -7.6283007 -36.3218651
  13.2269354  -6.3190680 -37.0739479  20.7050209 -17.9184322 -36.2367325
  20.8437500 -17.4295654 -37.0741959  21.6054840 -17.8743382 -35.8822289
 -10.1764393 -17.2121696  26.4226742 -10.3798447 -18.0569172  26.8158264
  -9.7851896 -17.4013939  25.5859585  25.3269081   4.5941019  -6.6745181
  24.4012241   4.4910579  -6.9513774  25.6528416   3.7155778  -6.9032536
 -19.1071014 -32.2825851  12.5379553 -20.0203190 -32.3374596  12.8434191
 -19.1662102 -31.5087738  11.9816065  23.1853104  31.8925400   2.8858809
  23.8666439  31.6841831   2.1585076  23.5027733  31.1820374   3.5235491
  24.1547832 -13.6194572  24.2955074  23.4850693 -14.3352861  24.3981247
  24.9347744 -14.0992174  24.0221405  -1.1886376 -35.2141647 -31.2371216
  -1.4137030 -35.8630486 -30.5279922  -0.5076362 -34.7514153 -30.8204994
 -38.9678116 -11.5582399 -15.9608974 -38.3100853 -12.1780310 -16.4088039
 -38.7569122 -11.6479883 -15.0318766 -13.0900869 -38.9025383 -22.4287281
 -13.1658678 -37.9422226 -22.1682091 -13.1398211 -39.3102455 -21.5329380
   0.2666393  -7.6750069   8.5410156  -0.2276012  -7.5550189   7.7224355
   0.4504178  -8.6427126   8.4837446  29.2177601   4.6623416 -10.5301075
  28.6226616   4.3264270 -11.2269545  28.6149940   5.1963220 -10.0104008
 -36.4239311  17.4710712   8.6183910 -35.8763351  18.1521187   8.1316462
 -36.2298851  16.6729031   8.1177988  -9.1863327   8.2604256 -19.3096943
  -8.8696232   7.3390331 -19.5154667 -10.0801668   8.1668882 -19.6850185
  14.2006254 -17.3340225  19.6287537  13.2482939 -17.4979725  19.6039505
  14.3775578 -17.1027203  20.5862637  35.3292046 -21.6034527 -25.2870770
  35.2204895 -22.0773029 -26.1098785  34.3686943 -21.3516693 -25.1530418
 -41.7326469 -14.9093771 -11.0424089 -42.2196617 -14.3224411 -11.6585741
 -41.3226547 -14.2702637 -10.4491806   0.2268671 -26.8415909 -21.0572662
   0.1761988 -27.6211052 -20.4121838   1.1672732 -26.7348328 -21.1615238
   0.9562889  40.8703232 -16.8103428   0.3853882  40.9683228 -16.0265865
   0.2887173  41.0835838 -17.5161572   9.6874037  21.0820084  22.9418964
  10.3972282  21.0728073  22.2488327   9.9874182  21.8681431  23.4943771
  -9.3414326  36.8499374  18.1233215  -9.4710569  37.8094254  18.1092262
  -8.4305611  36.7312775  18.3628521 -29.4395790  -2.8018918 -39.6596451
 -29.0153618  -2.4829164 -40.4919090 -30.1464100  -2.1258769 -39.5335770
  31.9146290 -23.5919914 -29.6932106  31.5461597 -22.7062206 -30.0521698
  31.4411983 -24.1620407 -30.3672791  37.6842041 -17.7351685  27.8461819
  38.4366646 -17.5428143  27.2562408  37.8433418 -18.7653351  27.8368530
 -14.0190926   1.7419252  45.9667053 -13.1735191   2.0730469  46.0313759
 -14.6589012   2.4232075  46.2590485   5.6203895 -35.0744133 -22.4915371
   5.0445347 -35.5291481 -23.1211052   5.9074721 -35.8520813 -21.9247074
  18.6769161  28.0901413  20.6811447  18.9873734  28.3928452  21.5694981
  18.4732437  27.1534939  20.8618984  30.0361691   7.8970461   8.8265171
  29.8384895   8.0184603   9.7258987  29.4219074   8.3985767   8.2746706
  22.0471287 -27.3030434  11.3649502  21.8579865 -27.3944969  10.3887177
  22.4903126 -28.1737785  11.5092344   5.5960498 -36.7545891  19.5448189
   5.1215639 -37.2537689  20.2508221   5.0303545 -37.0486374  18.7576885
 -31.9544201  33.4316063 -26.9492855 -32.0838394  32.4902420 -27.1773720
 -32.7645798  33.6354065 -26.4834614 -27.2784958  -8.5126228   9.5682592
 -27.8025036  -7.7423286   9.4321947 -27.0191441  -8.8268442   8.6878185
   4.1217632   1.2610551  52.1312599   3.7573402   0.4187307  51.9169159
   3.4237478   1.8760487  51.9661865  17.6301289  47.6307373   8.4522572
  17.8642921  47.7540894   7.5069914  17.1321526  48.4378395   8.5760193
  16.0673714   1.7938566   1.6657290  16.0748539   2.7205734   1.4763978
  16.5936699   1.7775009   2.4750929  -3.8705266 -41.2277145  -0.0301893
  -3.1976979 -41.7339973   0.5115862  -3.3557410 -40.4840050  -0.3508394
  -1.7103249 -19.1782608  27.9747658  -2.1126783 -19.8326492  28.6028996
  -1.2036222 -19.7429848  27.3825932   5.9142776   9.2087774  -1.2967179
   5.0862770   8.9190769  -1.7372370   6.5882568   8.9505024  -1.9679700
 -30.2149391 -34.1425972 -19.1422367 -30.5535316 -35.0760956 -19.2316360
 -30.8176899 -33.7162628 -19.7835979   2.2818398 -46.0710487  14.9755468
   1.8640023 -45.2619705  14.6236734   1.5426626 -46.5151138  15.4156361
   6.1620321 -15.7982473 -41.3924522   6.9999700 -15.6604843 -41.8242874
   5.5809774 -16.1006298 -42.1175957  40.0600166 -30.6571865  18.5337448
  40.7108803 -30.2002926  18.0200958  39.4352226 -29.9877472  18.8210201
  -6.4987569  -6.4336734 -36.1335716  -5.5978336  -6.3849578 -36.4356728
  -6.3862410  -6.9943089 -35.3163452   9.4306116  42.5727997  16.0294094
  10.0833902  43.3506317  15.9391785   8.6331749  43.0656891  15.8627653
 -13.1918011  14.6767168  28.8911686 -12.7484703  15.3613138  28.3530655
 -14.1174259  15.0102854  28.8906155  12.3191204 -41.4465294 -23.5605621
  13.1998711 -41.0144806 -23.7195034  11.7506838 -40.9111786 -24.1211815
  13.4102621  39.9402161  -4.0689149  14.0308304  39.4314537  -3.5941429
  13.8949890  40.5261574  -4.6810780  29.7263832  39.3555298  16.4123898
  30.1653137  39.8819084  17.0697594  28.8047142  39.5590553  16.6303616
   6.9903059 -40.5381660  -0.1547963   6.6186557 -39.9651909   0.5507203
   7.8957882 -40.5900650   0.2798311   2.2331879  -1.4609287 -38.2406540
   1.8520312  -2.3486805 -38.0623398   2.6910546  -1.6111689 -39.0748253
  -4.9517117  -3.7876539  45.7189522  -5.7669258  -3.3868914  46.1862564
  -4.4160004  -2.9842689  45.5132866  12.8000212  -9.3497009  46.7547417
  12.8381310  -8.3478518  46.8150787  12.7010117  -9.5654240  47.6979179
 -35.6907196   9.0614471   3.9295499 -36.5583038   9.4829416   3.7585082
 -35.2515602   9.7140102   4.4777131  42.2089348  23.0383568   1.3413973
  42.8598061  23.6701221   0.9440888  41.4091415  23.3652248   0.8660972
 -40.3449669   0.0770651  13.1913986 -40.4312935  -0.8085592  13.5388870
 -41.1980171   0.5072232  13.4548712  15.5216980 -35.1698380 -13.8299284
  15.8251104 -35.7287712 -14.5408020  16.3380833 -35.0964127 -13.2734413
 -35.3817253  -0.0594241 -19.4899311 -34.7201729   0.5801134 -19.1028366
 -34.7528839  -0.6897965 -19.8814373  17.9002914 -15.8942108  41.3030701
  17.2650585 -15.1865034  41.0388641  18.7255459 -15.4864893  41.0694466
  33.0626259 -20.2346458  12.8957901  32.3732262 -20.5428333  13.5368977
  33.7965584 -20.0716782  13.5308743  28.3218307 -18.8194504  -2.4193249
  28.8833847 -19.3891277  -3.0182352  28.9043808 -17.9797192  -2.5229144
  22.5207939 -24.1071548 -40.0289497  22.4783707 -24.0755596 -39.0676994
  23.0882587 -24.8366413 -40.2070236  -4.7877250  10.5682573 -50.7111359
  -4.1147165  10.7494040 -50.0503464  -5.5095549  10.1696043 -50.1691208
 -19.5407124  36.8693962  13.6078119 -20.3706837  36.3242607  13.6392612
 -18.9929314  36.2524109  13.1111422 -23.9871769  23.5480118  37.0723114
 -23.7011242  24.1938057  36.3838120 -23.3116722  22.8828106  36.9955101
 -18.0100651  16.9469395  -6.2445831 -18.8874626  17.2242508  -6.4060283
 -17.6758690  17.6309299  -5.6082406 -19.9655819  -9.9371939   8.1033020
 -20.1173744  -9.4375296   7.3357911 -18.9776459  -9.9766006   8.1250343
 -13.5348034  24.5982780   6.8364873 -13.0999403  24.2847099   7.6148095
 -12.7112083  25.0210972   6.4330568  23.6907291  33.9626694  -1.5220939
  23.9767838  33.8259201  -0.5927355  22.8882408  33.4830704  -1.5343442
 -18.0127029  21.9431324  30.4051514 -18.1018066  21.4506130  29.6252098
 -17.0235710  22.0658760  30.4158173 -13.8616610   2.6518810   9.1746054
 -13.0979643   2.7166047   9.7658443 -14.0060987   1.6580743   9.2635632
 -39.7629929  14.5102396  26.1615200 -39.3346786  14.5708771  26.9823761
 -39.0378876  14.4058332  25.4769154 -37.2091866  14.3116722 -12.3771143
 -37.2170258  13.4144869 -12.5814657 -36.2666817  14.5123310 -12.2762423
 -28.1073761  20.9949017  16.6251011 -28.5098934  21.8773174  16.5386906
 -27.1988392  21.1930866  16.3568001  11.1709900  15.3098297  18.2562389
  10.9346609  14.5385914  17.7092228  10.3525620  15.4542551  18.7561913
 -18.2361164 -18.5377693  34.0365601 -17.5837307 -19.0209999  33.4486771
 -18.3965607 -19.3111019  34.6248779   5.6231556  44.1295433  13.4894962
   5.6983075  43.3889503  12.8890505   5.4137168  44.8562355  12.8759871
  15.9373817  30.7504845   7.0335555  15.5997858  30.2084446   7.7480965
  15.9660921  30.1391888   6.2743464  40.0285797 -22.7675819  14.4549971
  40.8779526 -22.7212353  14.8567562  39.8028221 -21.8094368  14.3210573
 -24.7303753 -24.0468578 -21.9926414 -24.6639290 -23.2210083 -22.5853024
 -25.3984394 -23.7593212 -21.4139519 -38.2968559  17.5875950   4.8480473
 -37.7359695  16.8754158   4.4164634 -37.5580521  18.2311325   4.9285965
 -33.3101616 -15.7454424  -1.1904411 -32.9162102 -16.2731857  -1.9269803
 -34.2031593 -15.6925879  -1.5291870  14.8526783 -15.9812508  12.2616796
  14.1185226 -15.5470648  11.8222837  14.6614256 -15.8815575  13.2196274
 -27.5408611 -40.2524490  -5.3772264 -26.6008263 -40.0875511  -5.3872294
 -27.6474171 -41.1268845  -4.9545569   3.3348889  17.7567425  -5.6770134
   2.6358643  18.3233547  -6.0269113   2.9028296  17.4102249  -4.8515263
  31.9775105   3.7503409 -32.2990570  31.4069977   4.0620055 -33.0555534
  31.8582935   2.7762623 -32.4348106  -0.4804914 -11.7185135   4.3618131
   0.2374544 -11.4485683   4.8883586  -1.2632085 -11.4535217   4.8524427
  -5.0569987 -23.8332062 -21.4245014  -5.9592042 -23.7001858 -21.0770588
  -5.1606088 -23.6107464 -22.3569336 -29.0687695 -11.3723783  -5.7699380
 -28.2649364 -11.6973057  -5.2966576 -28.7031212 -11.2748098  -6.6718473
  29.3744144  30.2169495  22.0064220  28.7204342  30.9419708  21.7942219
  29.5422440  29.8485165  21.0822811 -37.7114983 -33.0188637  17.9481392
 -36.8147812 -32.8529472  18.3439388 -37.6081543 -32.4707298  17.1618500
  -7.9705844  11.0136471  24.8553505  -8.7693338  11.0078697  24.2188435
  -7.9311261  10.0568066  25.0125370  35.1135712  -1.6070393   3.4353442
  35.3832741  -1.8670989   4.3368092  35.3316956  -0.6531288   3.5022798
  23.5706501  16.8611870   7.7025146  24.1883564  16.1262722   7.8512988
  24.0131378  17.3218327   6.9729619  23.2829781  -1.2431940  32.2513695
  22.6113701  -1.5102935  32.9228477  22.7723541  -0.4060125  31.9288902
 -24.7422066   0.5557759  39.9543343 -25.3201103  -0.2622406  39.8811951
 -25.1517696   0.9645931  40.7506218  30.7508736  10.1759815   7.2059836
  30.4948788  10.7154303   7.9751172  31.7668991  10.1799507   7.4110336
 -18.4818897  34.1889191   9.9847231 -19.3618946  34.6590767   9.9442329
 -18.1689148  34.4725723   9.0848646 -42.4881096 -28.7058525  15.6854639
 -41.5777092 -28.8669453  15.2426729 -42.8107758 -29.5785828  15.4509115
   9.2837992 -19.5540314  39.1332474   8.5143051 -19.0427971  39.4237976
   9.9604645 -19.1940556  39.7009354 -11.6269379 -48.3510323  -4.2506003
 -12.1025267 -47.9400368  -3.5020025 -11.8643570 -47.8273926  -5.0015240
 -25.4186478  13.2639513   0.7530378 -25.4680691  12.3221550   0.4240023
 -25.8679771  13.7326765   0.0554316 -32.4567757  -9.2968931  -6.6382937
 -32.9450340  -9.4590654  -5.8203578 -32.8676605  -9.9598246  -7.2427397
 -14.3649702  14.2762384  50.2979317 -14.5734167  15.2092247  50.5207825
 -15.1925030  13.8551950  50.5590897 -18.5605259  11.7234097 -39.5113335
 -17.6151657  11.4465256 -39.6212273 -18.4506111  12.5142565 -38.9543037
  13.9508181  -9.5923977  35.7202530  13.5519009  -9.9489183  36.5238419
  13.6483307 -10.3376007  35.0743599  -3.1894426  42.6432724  13.8745184
  -3.9554510  43.2180901  13.8567266  -2.4581833  43.2587242  13.8655491
  26.4358711  22.3399143   5.8500104  26.9193649  23.0815525   5.4590597
  27.0360374  22.0403004   6.6012249  -9.5579414   9.2868347  -6.3519406
 -10.5108690   9.5677662  -6.5014157  -9.3294191   9.0385818  -7.2340612
 -43.1471481   1.9579229 -32.7305984 -42.3742294   2.6251230 -33.0337906
 -42.8584480   1.7344937 -31.8846836  17.0221100 -15.8608170 -32.6645050
  16.4796925 -15.2940073 -33.2397614  16.4843864 -16.6833591 -32.6177330
 -23.1729221   3.1263890 -20.6008244 -23.1526566   2.8294160 -19.6915493
 -22.3765678   2.7482035 -20.9324436 -29.6162930  17.1021404   7.5223188
 -30.5529671  17.0010719   7.1796398 -29.8383331  17.2206287   8.4614458
  16.1611290  -1.4959254  48.8983231  15.9433088  -1.6404469  47.9689140
  16.0387669  -2.4133065  49.1973495   0.5586594  19.6243420  16.2275791
   0.3937546  20.5911636  16.0291595   0.4461560  19.6540031  17.2065983
   4.9219289 -22.9759426 -26.5010777   4.6590943 -23.7783451 -26.9279804
   4.9097981 -22.3420258 -27.2724209 -31.5939789 -15.5053234   8.7164831
 -32.4718513 -15.1761141   8.9892588 -31.7942162 -16.0442448   7.9320326
  18.3488369  22.4378719  27.3357735  19.3073978  22.7235603  27.1857109
  18.4767132  22.2821350  28.3372307  23.3105583 -29.6186104 -18.8460655
  22.8808784 -29.1949921 -19.6385689  22.4815464 -30.0644608 -18.4983025
 -42.9775047  22.7927895 -23.7059784 -42.6280212  23.1696281 -24.5160408
 -43.0423737  21.8361492 -23.9368305   4.7134671 -27.2536163  16.5091991
   4.0408812 -27.3665581  17.2333469   5.5006113 -27.6714306  16.9397316
 -26.3301334  18.0037785  17.4020557 -27.1714096  17.8183784  16.9450951
 -26.6948299  18.7139473  18.0244427 -30.6717434  -7.1198392  -7.0307894
 -31.4385223  -6.8212852  -6.4613233 -30.9501801  -8.0521994  -7.1970334
   4.6617050  19.9290771  12.2996454   5.5046268  19.3980808  12.5084438
   4.0659833  19.4899483  12.9711666 -39.9586334  17.0567532 -22.1717186
 -39.2245064  16.4791527 -22.2636299 -39.7197533  17.8185177 -22.8228970
 -17.1715527   1.1561335 -25.3897114 -17.4092197   0.2470928 -25.4358044
 -18.0188503   1.5842422 -25.1507778  37.4668694 -28.1560383  12.1884365
  37.1547203 -27.4965878  11.5253668  38.3052368 -27.7824841  12.4503946
   6.0006747 -13.1887875  24.5467834   5.0280356 -13.4309540  24.5335770
   5.9468608 -12.2901478  24.1515827 -35.4170036  -2.8048170  -2.1032536
 -34.9439774  -2.0216711  -2.4489958 -36.2213249  -2.4028955  -1.7239534
  -1.4083315  19.5603371  25.9488106  -1.0604807  18.9446220  25.2568665
  -1.4100999  18.9871616  26.7272110   1.6800208  26.1280079 -12.2811184
   1.7544620  25.2536335 -12.6835966   2.6036599  26.2808990 -11.9869690
 -16.4845219  40.8191147 -17.2702332 -16.6188164  40.1284332 -17.9423161
 -16.2910233  41.6434860 -17.8251877 -21.4661694 -17.8563251  22.7350807
 -20.6389179 -18.1586456  22.2320538 -21.9797878 -18.6848488  22.5490665
  -8.8763199 -13.7442770 -37.8509254  -8.4368114 -12.9021578 -37.7549934
  -9.5965462 -13.6881323 -37.1560173   0.7287769  14.5955648 -20.7660465
   0.3951726  14.9120979 -19.8818226   1.5646787  15.0468063 -20.8126125
  42.3687057  19.9936676  -6.1434879  42.9152946  20.3304501  -5.4244270
  41.7728882  19.3605118  -5.6439638   0.5623000 -26.7275467 -16.6472530
   0.0252954 -26.1328335 -17.2671661   0.6631496 -27.5017109 -17.2894955
 -36.8560905  24.3664436 -20.2033634 -37.7833557  24.0380287 -19.9807625
 -36.3628731  23.5797462 -19.8326340  35.4971771 -10.3618574  34.3458099
  35.9749336  -9.5241632  34.2060776  36.0864410 -10.9468489  33.8055038
  33.2080536 -26.4438877 -10.4122858  32.4582520 -26.0660744 -10.9569340
  33.2607651 -25.7713890  -9.6603098  16.5082245  38.6039162   6.2338328
  15.9336395  37.7270164   6.1330156  17.3774261  38.1729240   5.9777989
  -7.7300196  -0.8042622  31.7866116  -7.5335078  -1.6692064  31.3293114
  -7.2717533  -0.2023885  31.1455688  23.4624996   5.2071280 -31.4776096
  23.8436871   4.3960590 -31.7419395  24.2679996   5.7724314 -31.4231339
 -21.6611099  35.5454559  -2.8903272 -21.0357094  35.9668427  -2.2179954
 -22.2193565  36.3398895  -2.9543476 -33.5315781   2.2310293 -11.0766439
 -33.8969650   1.9957922 -11.9275589 -32.5671921   2.1753612 -11.2327852
  34.4632721  -6.2972350 -34.0139275  34.3390503  -5.5843902 -34.7165604
  34.3754349  -5.8587704 -33.2185135   9.6831627  23.8732052  33.2523804
   8.7191687  23.9060822  33.1907463   9.8190775  24.8240089  33.5009270
  14.6709681  -7.8424706 -26.4188690  15.4666748  -7.5293579 -27.0463715
  14.4710598  -8.6639404 -26.9053860  36.3852806  10.4964781 -33.4316635
  36.9007721   9.9006615 -32.8189087  35.5800896   9.9954147 -33.4135971
   7.0902610  10.4401941 -43.1736488   6.2493510  10.9628859 -43.3413162
   7.1997418  10.4842930 -42.2250557   1.4779515 -10.2792149 -33.1575470
   2.3409257 -10.4340067 -33.5760040   1.5397201  -9.2943802 -32.9294853
  12.1119614  21.3808022  31.0105877  12.2866898  22.3406563  30.9932537
  11.5198307  21.3248196  31.7584343 -13.6762285  42.0744629   1.2190547
 -14.2909441  42.2764664   1.9639007 -13.4837523  41.1479340   1.4071605
 -14.7954121 -30.1787415 -12.9123516 -14.0235004 -30.7126713 -13.2259407
 -15.4708567 -30.3782253 -13.5967245 -23.7612934 -30.4950237  -6.3574548
 -23.9289322 -31.1617222  -7.0149655 -22.9949379 -30.8414440  -5.9019899
   5.3135557  24.8681774  -9.8166256   4.7224693  24.1899853  -9.4161844
   5.8173122  25.1758633  -9.0657511   9.5689154  -1.9572973 -37.6808586
   9.2994061  -2.3953967 -38.5192108  10.1391315  -2.6610310 -37.2817192
  43.4683189  19.0878105   2.6579084  42.8660507  19.4818096   1.9984608
  43.9441910  19.9515419   2.8629189   1.1905736 -35.5497742 -24.5102844
   1.2463491 -36.4129982 -24.0198135   0.8954808 -34.9943848 -23.7410965
   2.5077174  -6.5724773  -9.3679953   2.2177207  -7.5264721  -9.2412090
   3.1682878  -6.6379213  -8.6282940   0.5009006  42.0798302  -1.8333118
  -0.3560927  42.4649391  -1.5802703   0.7826502  42.7446709  -2.5342999
  -6.9730673  -1.1416847  50.4697113  -7.5478334  -0.5170603  49.9498177
  -7.2657480  -0.9722222  51.3588333  30.5063057  21.5307941 -15.0393419
  30.7579231  20.8250141 -14.4010925  30.5280533  22.3352966 -14.4386415
  -8.0096970  -0.1278239 -17.7062588  -7.8328729   0.8382593 -17.7312756
  -8.3659763  -0.3197087 -16.8560333  -4.2749381  -7.9458370   6.3757167
  -4.8127241  -8.7723579   6.5241246  -4.1980281  -7.6460619   7.2957220
   4.0112495  28.0643940  26.6147385   4.3367324  28.8493309  27.0699959
   3.1840620  28.3978329  26.1879253  -1.9485093  -7.1912923 -19.1480808
  -1.7379322  -7.2630615 -20.1083050  -1.8833841  -8.1456404 -18.8864212
  -9.6064825  16.2635403  -9.4097986  -9.4930210  15.2862720  -9.4002542
  -8.7783194  16.5671329  -9.0483665 -32.6289902  16.6009903   0.4595414
 -32.7624931  17.1090336   1.2731190 -32.0270233  17.1499138  -0.0641287
  27.8301907  -2.4995453  19.5623035  27.1151028  -2.8192503  18.9989510
  28.4961071  -3.1468682  19.3666801   2.3573067 -27.3950768  26.0099716
   1.9639971 -28.0371742  26.6695900   3.2889137 -27.4598236  26.2453022
  29.8172569 -21.4220409  -3.5679362  30.7644482 -21.4212437  -3.6025374
  29.5855846 -21.5291805  -4.4590988   6.9744158  24.2574902 -13.4012671
   7.9743562  24.3215485 -13.5958252   6.6631908  24.0052662 -14.2808180
 -25.2492580  37.6842880  16.6348419 -25.6490555  38.2389679  17.3223248
 -25.9874153  37.6249619  16.0066204 -10.6266384 -29.8700180 -27.0813599
 -10.1019535 -29.3303699 -27.6529713 -11.5104866 -29.7690067 -27.6248913
  12.6999636 -13.4330187 -25.5492516  13.6679783 -13.5742645 -25.6701450
  12.5725451 -12.5839863 -26.0333977 -12.2957201   6.5897264 -18.0540142
 -13.1964550   6.4817886 -18.2912006 -11.9418802   6.8643627 -18.9533157
  42.1417961 -13.6821585 -17.6612091  41.5562820 -13.2512093 -17.0191441
  41.5106583 -13.9958506 -18.3427753 -19.8229580  13.0834160  38.1870041
 -19.7629452  12.1380596  38.4888229 -19.4551926  12.9648676  37.2597809
  12.1623621   0.3358314   2.1436479  12.8018122  -0.4548930   2.1577804
  12.1865005   0.6100213   1.2238688  -2.5007510  11.7253380 -25.3778152
  -2.2729471  11.8522472 -26.3481865  -2.1469226  10.8568449 -25.2369804
  -7.5667343 -34.6179848 -22.3772449  -7.5019522 -33.6475868 -22.4004688
  -6.7261472 -34.8749275 -21.9335899 -42.7370758 -15.1750956  -0.0632562
 -41.7861061 -15.3915377   0.1869165 -43.0281219 -14.7757521   0.7555761
  -9.6117887 -42.5257988   0.3435844  -9.1630249 -42.8878555   1.1488363
  -9.0093536 -41.8504066   0.0125943   9.3170118 -10.4221182  32.0520058
   8.8904390 -10.7692251  31.2955360   8.5065050 -10.3021193  32.6515083
  15.7706604 -28.7322807 -21.7671871  15.6712418 -29.6030273 -21.3868008
  15.5685635 -28.8818321 -22.7280960  43.7752266  14.7138910  25.7281818
  43.5516052  14.4918299  24.7930489  44.7389793  14.7305880  25.7116680
 -33.0074387 -14.1996260 -18.1101170 -32.4194527 -14.7461700 -17.5620060
 -33.5054893 -13.6965265 -17.4951744  -7.7831664   5.2998600 -13.5717659
  -8.0391693   5.5429688 -12.6575756  -8.0894737   5.9979563 -14.1180477
 -24.0964565 -35.7699585 -22.8191891 -25.0181484 -35.4830246 -22.9169693
 -23.6548824 -34.9070625 -22.6517525  18.9448357  -6.9091253   0.2071079
  18.3413582  -7.2401562  -0.5063385  19.6996346  -7.4918785   0.0751678
 -33.6570244 -15.6184893  27.1928844 -32.8116951 -16.0724392  27.3007984
 -34.1331673 -16.2418995  26.6021156 -34.6284790 -10.8934488 -28.9433460
 -35.4563065 -11.1587801 -29.4212856 -34.7232170 -11.3261452 -28.0930462
  28.7034988  -7.1245956 -15.3548012  29.1455021  -7.9588242 -15.3100386
  29.3567047  -6.4630470 -15.2360086  23.4498997   6.7054229 -27.1636486
  24.3782978   6.8011298 -26.8597336  23.4042187   5.7322369 -27.1633129
  28.7341385  20.7885151  18.2335205  28.0687180  21.2037506  18.8009148
  29.0029507  21.5970783  17.6972122  24.4075336  -3.7348266  39.2215958
  24.6998615  -3.5151825  38.3374481  23.7257919  -4.4240751  38.9672661
   2.6487529  29.5301208   9.7144108   2.4121933  30.1832466   9.0310335
   1.8840711  28.8967876   9.7197027  16.7614059  50.4945831   9.7053728
  17.0953445  51.1529350   9.0211563  15.9477091  50.1154518   9.1740742
  -1.3893859 -12.3682299 -37.0593185  -1.2379776 -13.0270700 -36.3671341
  -1.4583219 -11.5195036 -36.4918289   5.4272943  -2.0895889 -32.3834763
   4.9710174  -2.0867910 -33.3023300   5.9616408  -2.9079015 -32.5894241
  42.1672401 -25.0576706 -10.3724251  41.8277092 -24.8009853 -11.2525644
  42.2283936 -26.0449581 -10.5060596  -5.0023336   8.6593075  26.3154354
  -5.8365154   8.3561525  25.8975124  -5.1210690   8.3492737  27.2309418
  -7.3629498  17.2456799  22.0810204  -6.9015956  16.4029198  21.8884163
  -6.5775023  17.8140965  22.2621479 -39.5554352 -16.0347748   3.7867446
 -39.7235680 -16.6656113   4.4716902 -38.5988617 -15.9425497   3.7370801
 -20.3644085  -8.7658072 -20.6381512 -21.0170403  -8.2149124 -21.0495605
 -19.6537762  -8.1116304 -20.5260258  43.5354424  26.6636143  17.3361149
  43.6719475  25.7303619  17.0735893  43.2126389  26.5961342  18.2547741
 -38.8288765 -23.8810768  14.0384951 -38.2204285 -24.2660332  14.7416430
 -38.3589935 -24.0916424  13.2208405  -6.1837883 -47.0977554   8.4876432
  -6.4169321 -47.3615990   7.5525265  -6.5246434 -47.8680687   8.9637918
  29.9176731   0.8525952 -25.1587601  29.5531101   0.7748892 -26.0727272
  30.7824039   1.2816738 -25.3978157 -14.8691645  -6.8571601 -33.6402168
 -14.5359850  -7.7301555 -33.3122368 -14.8720474  -6.3524032 -32.7769737
 -28.6265621  18.4994736  15.9706469 -28.7461147  19.4452705  16.0590973
 -28.7726555  18.3610821  15.0614967  14.7423906   6.1966038 -28.4413834
  13.9670877   6.7441626 -28.3864460  14.4888420   5.4629841 -29.0463905
  15.5945415  -0.5349970   0.4382163  15.5137577   0.2880121   0.9893773
  14.7606726  -1.0004265   0.7822621  23.0024853  34.9469185 -17.5821190
  22.8254433  34.3796959 -18.3519630  22.8764076  34.2818031 -16.8616066
  17.6841087  15.0966234   3.5665710  17.9470596  14.5925732   4.3433943
  17.8695126  14.3662872   2.9321003  -2.7885787 -34.5557137 -27.9720592
  -2.5633624 -33.7718964 -27.5127354  -2.8268430 -35.2190399 -27.2498035
  -2.8357098  23.0387478  -5.6653385  -2.4702632  23.5155315  -6.4510913
  -3.2623212  23.8435764  -5.2534170 -12.6101227  41.8084068  28.1642818
 -12.4473906  42.7441978  27.9455643 -13.5048828  41.6494484  27.7003880
  19.7608528  34.8499336   4.4362497  18.9397888  34.2903137   4.1902432
  19.8498039  34.5463829   5.3292408 -31.3220177  29.2392788  26.4085751
 -31.9159718  29.3528786  27.1570950 -31.6143665  30.0264721  25.9154320
 -12.1861677 -18.8458672 -33.7865334 -12.0850077 -19.0261822 -34.7393837
 -11.4849291 -19.4097652 -33.3954163 -13.7129612  18.1867027  -1.3176470
 -14.2989264  18.9959679  -1.5884945 -14.3684597  17.4708252  -1.5487278
 -43.6044235 -22.5440502  19.0197639 -43.1585045 -22.3192673  19.8905811
 -44.2917252 -23.1642132  19.3900909 -17.6851006 -16.8401852 -18.9422016
 -17.5877972 -16.2831879 -19.7539501 -18.3241501 -16.3077583 -18.4775944
  37.4041939 -22.1651688 -11.3999300  38.2476349 -21.8317814 -10.9097281
  37.3463516 -21.5132885 -12.1121054  25.9032192  30.6837368  -0.6568870
  26.8242397  30.6672459  -0.2771254  25.7556095  29.7418537  -0.8753626
  27.1876526  -6.3065009 -39.5643616  26.9237041  -6.9047527 -38.8714752
  26.7038155  -5.4972458 -39.3538284  -0.9431057  -2.4047396   2.2403655
  -1.8138633  -2.4718809   2.4764898  -0.4708090  -3.1700172   2.5251896
  26.1570110  13.2562895  29.1744061  25.7551823  13.2422476  30.0926208
  26.1172791  14.2346601  28.9612751  22.0355797 -27.1847897   5.7091565
  21.3017941 -27.3962917   5.1402221  22.6140099 -27.9864006   5.7051468
   6.5414424  -1.5751785 -41.5420456   7.1548357  -1.7417095 -40.7999153
   6.6285968  -0.5855151 -41.6498489 -24.1092529 -12.8766279  36.0091553
 -23.4958420 -12.1039534  35.9475632 -23.7384586 -13.2886810  36.7997627
 -13.2385607  13.4407930  34.3403969 -13.4807138  13.9768028  33.5632210
 -14.1276941  13.4401426  34.7756157 -21.7624130  38.1135712  -9.2761049
 -21.7869663  39.0647583  -9.2857122 -22.5477772  37.8873787  -9.8462782
  30.5297565  15.8365850  -1.7460011  30.8362808  16.7380352  -1.5868908
  30.0305519  15.9176435  -2.5570467 -11.1439028  28.8061924 -27.7456112
 -10.9900227  28.7469616 -26.7476654 -10.1982546  28.4855556 -28.0186214
 -21.3001709  16.4845638 -13.7403297 -21.8015842  17.2009563 -14.2339106
 -20.7465611  17.0301991 -13.1978769 -36.3476410 -14.5727139  25.0451241
 -35.5595970 -15.1143017  25.1662388 -37.0712852 -15.2254581  24.8279743
   9.3075800 -29.7970371 -24.0417747   8.4410658 -30.2648239 -23.9914646
   9.6489811 -30.3743343 -24.8006191 -24.2850666  17.5333939 -22.9432564
 -23.2906284  17.3071480 -22.7716579 -24.6331463  16.8535500 -22.3181057
 -12.3595972   8.2093267 -42.3121033 -12.3674021   8.5269899 -41.3726006
 -12.4364042   9.0939465 -42.7886276 -30.7818623  -8.7112684 -26.8866348
 -30.6619778  -9.6155539 -27.2080936 -31.6926479  -8.8387547 -26.3878174
   3.2112942  -6.0492711  16.9088707   3.6004782  -6.8257728  17.3816376
   3.0679216  -5.4323859  17.6205044   4.1562042   4.8619289  39.7148514
   3.9283984   5.2177620  40.5928383   4.3540969   3.9196169  39.9196701
  26.1398792  26.8665276   9.1687212  26.9249725  26.6517239   8.7399721
  25.4383602  26.4349842   8.6616402  -2.6749482 -43.3750572  11.0142889
  -2.7696512 -43.9628754  11.7944603  -3.5539970 -43.4302711  10.6095247
 -30.1791782 -12.9795361 -23.0880051 -29.7822342 -12.4674568 -23.8811073
 -30.2304134 -13.8730001 -23.4382114  -3.1255748  -6.9409447  20.4754677
  -3.7331629  -6.1798162  20.5317230  -2.2574623  -6.5301409  20.3180008
  26.1814613  -5.5640335  -6.5529485  25.2645645  -5.6945333  -6.3012295
  26.0137310  -5.1628170  -7.4391756  12.8219204  -6.9393668  -1.4351410
  12.6603823  -7.8673391  -1.7140545  13.7651224  -6.8253694  -1.7430665
 -14.2204304  -1.2815710  17.4542980 -13.2997150  -0.9953846  17.8070831
 -14.4110661  -1.8895040  18.1810780 -13.7843800  20.9626446 -29.0165234
 -12.8283234  21.2774734 -28.8231144 -13.6739187  20.8846836 -30.0154705
 -11.7401686  31.5095997 -27.6489086 -11.9390774  32.0204430 -28.4074631
 -11.5331078  30.6553116 -28.0445862   6.7374549 -15.3107281 -23.4092045
   7.2579150 -14.9453726 -24.1862183   6.1610832 -14.5464525 -23.2372437
 -17.1574421   2.6058543  14.2763672 -16.2986431   2.8694499  13.8747969
 -17.5425968   3.5571854  14.4163074 -27.9192104 -19.3303604   2.0732825
 -27.8389206 -19.5614548   1.1200089 -28.5326481 -20.0520134   2.3925104
  -5.5643744 -10.9096680  -6.5917687  -6.0582824 -10.1483603  -6.8695359
  -5.5304437 -11.3824663  -7.4970560  35.0035286   3.7568285   6.4531322
  34.6204529   4.3716345   5.7620435  34.6209946   4.1719961   7.2593856
 -31.7020969 -29.4673729  -0.3431975 -31.0446091 -30.2017460  -0.2200539
 -31.4744492 -29.2942505  -1.2995286  -8.9130621  17.4130611  -1.7790506
  -8.2047243  17.1764240  -1.1258640  -9.4605207  17.9727478  -1.1407917
   6.7271419 -43.0956383   8.0440435   6.2692184 -43.4255409   8.8711414
   6.1230092 -43.3469963   7.3165779  -4.1796031   2.5638471   6.4292197
  -4.9351568   2.5222814   5.8053865  -4.6607466   2.7186894   7.2673597
  -6.0264716 -16.8197956  26.2168121  -5.5892310 -16.5584164  25.3864899
  -6.7462249 -17.3785515  25.8103561  35.3905754 -12.5847540 -15.0722923
  35.2337570 -11.6534014 -15.4610310  35.3844147 -12.2693071 -14.0834436
  14.7389727 -30.5729408 -12.8618736  14.5286226 -29.9538765 -13.6281290
  14.5281134 -31.3894291 -13.2273216 -26.9164639  18.2866173 -31.5851669
 -27.2699356  18.9771461 -32.1621780 -27.2270508  17.4790878 -32.0708961
 -24.0253048   7.9902949  19.8348694 -23.7881699   8.7610884  20.3592548
 -23.1836529   7.7818804  19.3859310 -13.7545052  37.6944046  -2.5163922
 -14.5602713  37.7498016  -1.9473764 -14.2266455  37.3416748  -3.3322017
   7.6683426   1.3412713  -1.9964595   7.0616550   2.0691156  -1.8006948
   7.5203710   0.7573394  -1.2513857 -17.3361244 -16.7048035   1.6249261
 -17.3976593 -15.7525482   1.7326462 -16.4002838 -16.7750778   1.2618132
 -25.8201370  18.9331703  31.4976330 -25.3990402  19.7961903  31.3505688
 -26.5158978  19.1395378  32.2145462  17.0188198  33.1850586  -0.3204927
  17.2676086  33.7315483  -1.1033878  16.7954845  32.3332291  -0.7628136
  -9.9924707   2.9456046 -36.7116699 -10.5607681   2.8712077 -37.4991264
 -10.6237583   3.3268232 -36.0858955  33.5478134 -18.5632000   3.2724457
  33.1698494 -17.9876156   3.9567673  34.4672775 -18.6047611   3.5359175
   2.2318969  15.2298775  22.6057816   2.7577307  14.4244900  22.8014164
   1.7863967  15.3984566  23.4660683 -19.1716709 -20.3719978 -20.6573944
 -18.6561794 -20.9342861 -20.0414600 -18.7004051 -19.5244865 -20.5561886
  12.8343496 -21.1173019  41.7110710  12.3697243 -21.5893745  42.5095177
  12.4400749 -21.6116352  41.0001259  32.4279785 -18.5398388 -26.9619274
  32.9848900 -17.9165840 -26.5135098  33.1015091 -19.1395950 -27.4033623
   4.6367168 -28.4388885  26.9714527   5.0725360 -29.0600395  27.5504913
   4.6301999 -27.6026993  27.4941750   4.1459689 -13.6017323  40.1839142
   4.0576844 -14.5612030  39.9009094   5.1391511 -13.5202255  40.3588333
  21.8318405  -2.2150621   0.6006406  20.9604015  -2.5833468   0.9583106
  21.3738232  -1.6740457  -0.0978333 -19.1928978 -20.2579079  14.5903444
 -18.7765980 -20.9159603  14.0371084 -20.1326485 -20.3724747  14.3993168
   1.9565531 -26.4894505  30.5854321   2.8626595 -26.1914425  30.8683605
   2.2192278 -27.3102360  30.1025753 -20.6083355  -8.1777859  15.4135027
 -20.0980244  -8.7644520  16.0221596 -21.4359360  -8.6390038  15.3005266
  26.0658817  10.6488400 -19.6363811  25.2670135  11.0167398 -19.2365551
  26.5236874  11.4217062 -20.0023289  12.2068634 -35.1195602 -20.1565113
  11.5247984 -34.8264580 -19.4876537  11.5207872 -35.2781105 -20.9455509
  32.9725609   2.6647184   3.1275234  31.9924030   2.6838007   3.0271335
  33.1745071   2.0731282   2.3569493  14.3505116 -10.6171970 -28.6548367
  13.8897667  -9.8767176 -29.1758976  15.2582331 -10.3113689 -28.6813107
  30.3834724 -19.7836514  21.6812401  31.0031452 -19.3808079  22.2938576
  30.2726898 -20.6542931  22.0751991  27.8394852 -19.0231133 -30.7876740
  28.6690788 -18.6270962 -30.5041943  27.8278675 -19.8629341 -30.2585278
 -17.5612011 -42.2407913  13.8005686 -16.6200848 -42.3582039  13.5446367
 -17.4290867 -41.6099472  14.5118322  32.2881050  39.0353127  -3.1771739
  31.4104195  38.7264061  -3.5595357  32.1912613  38.7227478  -2.2374718
  17.4551926  27.3987236   4.5875630  18.4149151  27.3113117   4.4270782
  17.2711849  28.2091618   4.1536880   5.0798826 -21.6616020  -9.6107559
   4.1091790 -21.6440773  -9.4564714   5.0938540 -22.1699581 -10.4624672
 -33.0468063   2.9076660   6.4039907 -33.4411278   3.2225969   7.2525949
 -33.6608963   3.2796009   5.7558780   5.6062565 -31.8315220 -14.4193754
   4.9620543 -31.8990593 -13.7236929   5.1965795 -32.2421494 -15.1736927
   6.1279998  22.5670338   1.8272226   5.2984753  22.9251194   2.2026296
   6.5606456  23.3561649   1.4930011 -14.0007906  30.7968884 -11.0341673
 -14.7907171  31.0777931 -10.4727678 -14.2920942  31.0141716 -11.8932590
 -17.3490829 -49.2680855  17.8561211 -17.9004326 -49.8573608  18.4079170
 -17.5009670 -48.3774948  18.2409496   5.3263083  -8.3387918  10.9317703
   5.3944087  -7.5998168  11.5480042   4.4816728  -8.0538549  10.4915400
  32.5669479 -12.1857891 -14.6915970  33.4761009 -11.9728022 -14.9816723
  32.0523033 -11.5083456 -15.0452604   6.8540463 -43.2817688  15.9213886
   5.9275866 -43.4783821  16.1886978   7.0051007 -42.4831848  16.4942760
   7.1924071  -6.6782155 -42.6381149   7.5281286  -6.2098126 -43.4484177
   6.1991925  -6.5628362 -42.7597923 -16.4231529  26.2424927  14.7439241
 -16.4803638  27.2343864  14.7364244 -16.8089981  26.0728664  15.5892143
  14.3028698  11.3083858 -35.7532082  14.5285101  10.4597158 -35.3151932
  14.8424902  11.1800394 -36.5803413  11.6286373 -36.5469284   2.5520062
  11.4225559 -37.4830093   2.6229789  12.4089117 -36.5318565   1.9201270
 -43.8772392 -21.4073277  -9.4083652 -43.7973328 -20.5023956  -9.8016491
 -42.9473343 -21.6557178  -9.3444576 -11.7072792   8.8633614 -16.5031414
 -11.7891674   8.1063061 -17.1653862 -12.5951614   8.7881861 -16.1544914
   8.7406273 -38.0028725   0.1001048   8.0962048 -37.1900139  -0.0138751
   8.5556965 -38.3743095  -0.8022983  34.6629868 -17.2643108  -3.9071023
  34.7151031 -16.5490837  -3.2172849  34.7773819 -18.0716515  -3.3473070
 -25.0133076  -4.0293894  31.2737103 -24.3719063  -4.0872130  32.0340919
 -25.7268333  -3.5466146  31.7274323 -36.8681831   8.3069677 -31.7756920
 -36.8745461   7.9343338 -30.8329296 -37.1720657   7.4838057 -32.2318840
   1.7094406  21.3180504  -1.2936954   0.9694504  21.9008446  -1.5255638
   1.4192158  20.9688320  -0.3808605  -2.0431924  39.1789589 -15.1995382
  -2.3849838  39.1203041 -16.0630550  -1.4149559  39.9426079 -15.2838259
   0.7183297 -32.4852104   1.5895774   1.3954475 -33.2247391   1.8238471
   0.4603922 -32.2896881   2.5224507  41.6466370 -31.4355965   3.5571222
  41.8145790 -30.5190716   3.6031673  40.6835289 -31.4703522   3.8560596
  -0.1842260  11.7880297  47.4649162  -0.7362894  12.0788975  46.7489433
  -0.4842990  12.2908363  48.2401314  43.1154823   7.7800808  16.7235889
  43.6573792   7.4904523  17.4840565  43.7513123   8.1899443  16.1674366
   3.0427773 -14.9325647  33.1825981   3.4199514 -14.2294159  33.8019600
   3.8149633 -15.5708179  33.2273750 -19.1663799   3.9742508 -42.2682343
 -19.9533482   4.4789004 -41.8705597 -18.7923164   4.7671509 -42.7821999
   6.2738338 -11.5725546   7.3170581   6.8253322 -12.3916531   7.2748928
   5.4875298 -11.9542961   7.7557950  21.0251713 -11.3113794  34.0784569
  21.9588032 -11.4308767  34.4477730  21.2631435 -11.3414249  33.1262817
 -33.1079254   8.4781389  31.3996315 -32.7895393   7.5500522  31.3463326
 -32.3829422   8.9600706  30.9550495  -7.0711732 -38.3522110 -27.8676453
  -7.5364461 -38.4987602 -27.0097923  -6.1815171 -38.4231339 -27.5804958
  12.8340549 -40.9689064 -32.6782150  12.3377867 -40.7910347 -33.4840584
  13.4888105 -41.6331100 -33.0480003 -42.1668549  27.2187214   6.3476973
 -42.9400139  27.8037891   6.4846864 -42.5129929  26.4129162   6.7108564
 -24.3573704  14.0191164 -40.2277031 -24.8961201  14.1000557 -39.3470383
 -23.6673546  13.3593807 -39.8687553   1.9530064 -44.5430603 -18.0777950
   2.8634565 -44.1607971 -17.8428345   2.2983694 -45.3162308 -18.5935669
  36.6418686  19.3084831  12.6350098  35.6872253  19.0606098  12.7940693
  36.5733147  19.6282406  11.7214794 -10.3873053  41.8525658  -5.8875051
 -11.2727184  42.0259476  -6.3166881  -9.8434153  41.6591110  -6.6699944
  28.4241638  33.6096382 -12.2605991  28.7667046  32.6544952 -12.2695379
  27.7503662  33.5067749 -12.9536791 -40.5712242   4.5374627  -1.0359933
 -40.7236023   5.0924973  -0.2488014 -41.1073952   3.7077596  -0.6808403
   9.7836504   3.1372526  19.3361492   9.2129669   3.7917352  19.8491039
  10.1681376   2.7172992  20.1207008 -13.0486231  -6.4579597  -0.4216813
 -12.1736593  -6.5232177   0.1093198 -13.2825279  -5.5773544  -0.2269959
 -37.7706451 -35.4851952  -5.1221499 -37.1737556 -34.7324638  -4.9295282
 -38.6169662 -35.0472946  -4.8850746 -25.2769547 -27.4749355   7.6628857
 -24.5723686 -26.8982964   8.0450048 -25.0278015 -27.3258877   6.7165189
   7.4648700 -36.1631851  31.9167252   6.8973861 -36.0146103  31.1273975
   6.9145489 -36.9203262  32.2129745  -2.4760242   0.1852987 -14.1766005
  -2.8689704  -0.4308652 -14.9244614  -1.6598880  -0.3943492 -14.1234941
  37.8520660  25.3077011 -10.7635260  37.0066414  25.8325977 -10.9158058
  38.3975296  25.9702950 -10.3618460  -0.7989514  25.3511562 -10.8663225
  -1.1471537  25.0609436 -11.7375879  -0.0359782  25.8813019 -11.1425371
 -24.3497753  30.6928787  -4.9621639 -23.7183170  30.0658684  -5.4312277
 -23.9325218  31.5205460  -5.2456756  -3.7412341  -2.5014157 -22.3639202
  -4.0883017  -2.9307983 -23.1471786  -4.5593948  -2.0058298 -22.0979862
 -13.8862391 -27.0015907 -16.9012566 -13.7398338 -27.8638821 -16.3576851
 -14.1358900 -26.4542255 -16.1266232 -34.3527260   2.6952915   3.3717613
 -34.6973610   3.5051563   3.8436399 -35.2300949   2.3387403   2.9759161
   1.1866043  30.2976551  -3.6528938   0.5586116  30.0269814  -3.0052686
   1.8293089  29.6198463  -3.6600718 -23.2211437  31.1459351 -23.2842731
 -23.4130898  31.4750385 -24.2301655 -22.2709656  30.8946762 -23.5002728
  12.2602386  19.2740726  -1.2919875  12.0735483  19.2749310  -0.3330824
  13.1590633  18.8472252  -1.2436576  16.7300816   7.0135584  38.7981644
  17.2248268   7.8716807  38.4819908  15.9373045   7.1994739  38.2466354
 -15.1196642  -2.6182435  -6.0338173 -14.4493990  -2.9710505  -6.6332369
 -14.8932877  -1.6196927  -6.0272341  11.4843960  43.0545387 -23.0711975
  10.8608999  42.8709984 -23.8026657  10.8609991  43.0483208 -22.2949409
   3.2287996  10.0335073 -45.3634834   3.2687335  10.3229227 -46.2909050
   4.1640086   9.8395624 -45.2393684   7.6644411 -26.2659950  -5.8678126
   8.4565105 -26.3068752  -6.4188313   8.0731907 -26.4968586  -4.9669085
 -25.8531399   5.8095002 -25.2758484 -25.5232296   6.6749387 -24.9915886
 -26.0962543   5.3884211 -24.4339752  10.6912298 -20.4964352  37.1760406
  11.4195738 -19.8148899  37.2091751  10.1376791 -20.1122665  37.9034691
 -41.9639778   0.6409745  -3.6933913 -42.0941048   0.8624586  -2.7319088
 -41.3963470   1.4546720  -3.9559958 -36.8727264  -0.7031551 -26.5412102
 -36.8108139  -0.6772918 -27.5582924 -36.0463066  -1.1771256 -26.3564415
 -34.6184311  14.2130880  -3.6542346 -35.0637093  14.4269428  -4.4852314
 -33.7361183  13.9532070  -3.9186213   5.6768408 -16.7407513 -14.3996754
   5.4935393 -17.5012245 -14.9125767   4.9281011 -16.1199493 -14.6427212
  38.1930618 -27.9618893   6.4345293  37.7044487 -27.7183437   5.6405048
  38.9829674 -27.3391590   6.3776922   8.8228502 -23.3276176  -2.8056345
   8.2698278 -23.4481697  -3.6151559   9.6827898 -23.4793301  -3.1899846
  -2.9287999  36.2464790  33.8421860  -2.8338039  36.5323601  32.9021072
  -3.9094439  36.4465485  33.9252510 -25.5680275   5.6522970  36.7799683
 -25.1589108   5.1584973  36.0341682 -26.2100487   4.9745493  37.0824699
 -10.7210464 -31.8228207 -11.2017355 -10.9707308 -32.4299660 -10.4549599
 -10.9262867 -30.9810276 -10.7650509 -18.7375774  29.0239677   9.4050636
 -18.7250786  28.5846214  10.3040161 -18.6515083  29.9596004   9.7411127
 -18.8509655 -36.7715797 -16.9443092 -18.1787720 -37.3477211 -16.5365810
 -18.2246189 -36.0508270 -17.2379627 -37.2146797   5.2039528 -31.8744888
 -37.9068413   4.6913629 -31.5135098 -36.4548721   4.5688176 -32.0159607
  -6.2794452 -16.5346909 -16.7283726  -6.8078585 -16.5153580 -15.8893309
  -6.6509609 -15.7392778 -17.1739178 -16.5984020  -5.3895335 -25.1780224
 -16.3160439  -6.2744131 -25.5470333 -15.8725519  -5.4185319 -24.4440060
 -40.0051117 -12.6449757  10.9358034 -40.4349022 -13.4458055  11.2279949
 -39.0539436 -12.8517056  11.0518703   4.5253487  -2.0726800  39.1793060
   4.4532986  -3.0523031  39.3622513   3.7599852  -1.9798831  38.5631104
 -16.0660362  40.2257118  18.7369118 -15.7317705  41.0682106  18.2954063
 -15.2489357  39.7527199  18.7629623  -1.0426350  26.7328453 -25.3639870
  -1.6197141  25.9739952 -25.6016350  -0.5664141  26.3784351 -24.5935650
   8.2073822  32.8696175   2.8270588   7.2675409  32.9292030   2.6549754
   8.4053183  33.8096619   3.0844121   0.8496541  19.2916813   8.6278229
   0.2570522  19.8077526   9.2572756   1.5881317  19.0920811   9.3173027
 -13.9173031  18.1278496 -28.1697559 -13.9756918  18.8172951 -28.8630161
 -13.2455139  18.5267353 -27.5869865  22.5650444  41.8211060  13.3741875
  21.8830738  41.9943542  12.6435738  22.8991985  40.9785690  12.9393482
 -22.4651527   1.5042863 -25.4214497 -22.0690002   1.6404444 -24.4996033
 -22.8712978   2.4106402 -25.4901505 -23.9314919   9.7010622 -44.7570190
 -24.7565384   9.9748173 -45.2900505 -23.7320099  10.5503130 -44.3055077
 -14.4621820 -15.4738913 -28.9626083 -15.1428366 -15.7871628 -28.3273735
 -15.0255985 -15.0535240 -29.6653919  33.4252090 -18.4911804  22.0703602
  33.6683502 -18.3821926  23.0037994  34.3194237 -18.7134457  21.6728077
  -9.2794800 -46.2432327 -11.9662657  -9.1079493 -47.1233368 -12.3908396
  -8.6084375 -45.7916145 -12.4910688   5.7542396  22.4064274  14.9102306
   5.9983935  21.4084835  14.9319601   6.0986071  22.6871815  15.7943487
   7.7712584 -24.2478924 -28.3373413   7.6926632 -23.5234375 -29.0083008
   8.7807579 -24.2254028 -28.2190228  16.9892769 -24.3822289  -0.4364369
  17.5923557 -24.1262932  -1.1389594  16.1121693 -24.3269653  -0.8997197
   7.0944138  -3.2132239  17.7830029   7.5733495  -3.1788342  18.6512547
   6.5214124  -4.0427499  18.0296707  15.3182878  32.4464874  18.3738289
  15.2876663  32.4257278  19.4077110  15.5611210  31.5043201  18.1943951
   9.0058508 -36.6187210  -5.5805526   8.3646898 -36.2270432  -6.3115096
   8.8148413 -35.9678268  -4.8916082 -25.4321270  36.1582756   0.3836051
 -24.6639442  36.6374054   0.7469743 -25.4127731  35.3093529   0.9741939
  27.4994373 -30.7552681 -24.9638939  27.1155014 -31.5925465 -24.6182041
  27.2682972 -30.8100929 -25.8951683  17.3869152   6.5417910  13.7435427
  16.5598240   6.8435364  13.3133364  17.2317314   5.5850406  13.7090578
   2.2639103  10.6072836  47.4894829   1.3642015  10.9606438  47.4910316
   2.6312249  11.1168394  46.7306328 -16.5178566 -30.4531727  -0.4004220
 -15.5626078 -30.1258469  -0.4680052 -16.5880489 -30.8790035  -1.2933394
  30.0423717   1.0442616   4.9068155  29.5091743   0.8639977   4.0718427
  29.5951462   1.9159422   5.1493678 -14.2095547 -33.9007301 -13.1790962
 -14.3780336 -33.9977951 -14.1183481 -13.5858393 -33.0887146 -13.1362829
   4.5352864  18.1924744 -24.3903999   4.2909412  18.0197315 -23.4697704
   4.4309440  19.1642933 -24.4694805   8.3743172  14.3979979   4.8711472
   7.9147630  14.3814716   5.7683978   9.2684603  14.5660763   5.1977115
   3.2833004  19.8428993 -16.5845146   2.6047094  20.1634541 -17.1460114
   2.8615541  19.0112877 -16.2414684 -31.6279449 -23.5343285  -0.8631054
 -31.0878506 -23.3606091  -1.6876205 -32.4238396 -22.9795818  -1.1669874
 -10.2514172  19.2439632  11.8482599 -10.1080637  18.7682972  12.7193823
  -9.5868902  18.8182831  11.2978258  -6.9264126   9.6074953  -9.7694473
  -6.5949445   9.2822304  -8.9149542  -7.8537350   9.3319359  -9.7682810
  25.8978233 -31.2009964   4.5910368  26.2872658 -30.9727535   5.4515448
  25.3928413 -31.9825325   4.8529100   3.7811601 -20.4154854  39.6132011
   2.9322660 -20.7328701  39.9900017   3.4527154 -19.9792976  38.8496933
  44.3547211  23.7657490   9.5651035  43.8180885  24.0417404  10.3864813
  44.4449959  22.8327446   9.8490400  23.6931553 -36.0480423  21.6493645
  24.3059788 -35.5050850  21.1591225  23.7386093 -36.8759308  21.1278191
   4.9428406  -0.6930873  28.2116127   4.1056514  -0.6845320  28.7301331
   4.8690915  -1.5703505  27.7921963  -1.8746620  24.3688145  -8.3167601
  -1.3653959  24.7105408  -9.0690098  -1.6367887  25.0488548  -7.6897721
 -16.5669365  -5.6824279   8.0457029 -16.6008987  -6.4508910   7.3918333
 -16.7064857  -6.1511598   8.8584909 -13.2638245  15.2942333 -43.6970177
 -12.5814447  14.5736647 -43.7320175 -13.3299246  15.4795408 -44.6601601
  28.4196682  27.2313652  -6.7512765  27.9052868  26.4857616  -6.4015617
  28.3624020  27.2248631  -7.6921649  17.0396271  23.4640179 -29.6987209
  16.3169765  24.1439247 -29.4209003  17.4295235  23.3619156 -28.7791576
  13.8157997 -27.3892384 -29.5346489  14.0246887 -26.9779911 -30.4022541
  14.6179867 -27.0871620 -29.0134258 -37.2367020  19.1141129  30.0611076
 -37.0451546  18.8024044  30.9721870 -37.4745255  20.0679684  30.3014297
 -11.1928711 -17.0054607  20.0522537 -11.1146049 -17.8885670  20.4278736
 -11.3704844 -16.5731926  20.9477119 -13.4025021  38.9447861 -11.0627785
 -12.4880018  38.6096764 -11.1063347 -13.8328056  38.3790131 -11.7965212
 -17.1648617 -25.0723839  12.9708824 -16.7373848 -24.8517056  12.1245108
 -17.4504414 -26.0178814  12.7636003  -1.6393538  24.3009644 -13.4097147
  -2.3918293  23.9943905 -13.9190969  -1.0762024  24.7101345 -14.0488882
  20.7530613  -0.8947961  -4.4332337  20.4171677  -1.7569466  -4.2070227
  21.4118309  -0.7183934  -3.7667489 -21.7699070 -15.2225037  21.2937031
 -22.0100098 -15.8006296  22.0908680 -21.5387440 -15.9791574  20.6914082
  29.5271492  12.2342520 -16.5028133  30.2620983  12.8490248 -16.4026318
  29.8962784  11.5382576 -15.8654661  10.0886755  -1.9532107  23.2657204
  10.9315233  -2.0830688  23.7615051   9.4354229  -2.4235485  23.8248253
  27.0649776 -15.1089630 -13.2564907  27.0143681 -15.5602016 -14.1047087
  26.5873642 -15.7931814 -12.6722145  31.4910564  -7.1274228  14.6933222
  31.7795811  -7.5955472  15.4752846  31.6039371  -7.8609271  14.0562706
  31.9071751  14.1878977 -26.6159840  32.5204887  13.4527426 -26.6956024
  32.5259857  14.8622789 -26.2465248   2.1010473  19.3005161  -9.3663120
   1.9285530  20.2899075  -9.5193586   1.2760804  18.9607582  -9.7390118
 -11.0365858   8.2126503  39.6774635 -11.7914009   8.6916418  40.0693169
 -10.8663979   7.5280333  40.3512993  18.0630283   0.2222101  15.0429678
  17.4461193  -0.4957154  15.1117611  18.7134781  -0.1278865  14.4286613
 -41.0722961  10.3147640  23.5844212 -40.1485786  10.5597277  23.3445377
 -41.4217339  10.0449867  22.7860508  32.3592682  -2.3415055  41.2123871
  32.5697632  -1.9798213  40.3015099  32.9253769  -3.1473465  41.1381416
   8.7907877  -0.4064141  46.7387924   8.1834669   0.3557365  46.6401024
   8.2323456  -1.1754167  46.4596672  13.7969427 -26.7812519 -34.4975586
  13.2426348 -26.3654652 -33.7890587  14.5363245 -27.0614624 -33.9009933
   7.7840471  -6.0850968  33.9983597   7.9275651  -5.3320403  33.3597641
   8.4995842  -5.7878418  34.6220207  25.3633099  27.3562202  25.2519741
  25.7274113  26.9031143  26.0658836  26.1666317  27.8776131  25.0395584
  -7.0022907  34.7327118 -19.9206429  -6.9769149  34.3104248 -18.9872513
  -6.0718465  35.0070534 -19.9582577 -22.0423145   7.1192307 -37.7157059
 -21.4510994   6.8409643 -37.0540886 -21.7278690   8.0457668 -37.8854485
   0.3176961   3.9556351  -8.9806356   0.7598662   3.1539254  -9.1963177
  -0.5625117   3.7763917  -8.8412838 -34.7283363  14.0045614  -9.1075535
 -34.5059662  13.4327097  -9.8918257 -34.4592972  13.3726034  -8.3903379
 -11.5674801 -29.6975880  19.5926552 -10.9240198 -29.6209679  20.3006229
 -11.0002947 -30.1108971  18.8835640   7.4231701  43.7842712  -7.4964657
   6.8629489  44.2537231  -6.8393154   7.8655977  44.5070648  -7.9323907
   2.8620286   7.8426461  46.9116249   2.5162446   8.7455406  47.2164078
   3.3571153   7.6175728  47.7309494  27.3901672   2.4881678  -2.5037217
  28.2629490   2.9386497  -2.3272326  27.7722340   1.6583928  -2.9107308
 -17.3197289   3.4194572  -9.8406162 -17.6069756   2.9215109  -9.0663977
 -16.3447571   3.4762487  -9.6566486  33.4811363  33.1830597  12.2271900
  34.1943283  32.5795975  12.3620501  33.9103622  33.9330826  11.7685938
  -8.6160269  33.0722580  20.0769463  -8.9714527  33.9776306  20.2669792
  -8.1616306  32.9205933  20.8904648 -15.6773987  39.8724937 -20.3622532
 -16.5673084  40.1480637 -20.5473347 -15.3249674  39.7546577 -21.2400932
   6.2428846   0.4774160  49.5754929   6.8808637   0.8230063  48.9156723
   5.6450396   1.2507553  49.6415901   7.8300629 -10.9754705  -8.0066242
   7.8618536 -11.0552826  -8.9682446   7.3004766 -11.7322683  -7.7518172
   9.5527325  40.3442841 -15.9183998   9.4003830  40.2491989 -14.9416628
   8.8346758  39.8113556 -16.3288822  42.4014091  22.4291515   6.7432122
  43.1618881  22.8999100   6.5189142  41.7344017  23.1289272   6.7200003
 -43.5281181   5.4084997  -0.8542112 -43.8138275   5.3789535   0.0978228
 -43.3499565   4.4074512  -0.8864728   8.9596338  -3.4270840  30.1944389
   9.2442970  -2.4854829  30.4193153   8.2889938  -3.5841551  30.9087753
   2.9867013 -26.6253910 -20.9738865   3.1655109 -27.2218418 -20.1589050
   3.4265454 -25.8272743 -20.6473789  36.5604515  26.0907917 -20.9328136
  35.9843864  26.6386299 -21.3972950  37.1536446  26.7965069 -20.5332489
  -5.7413964 -10.5482988 -43.5256081  -6.2827320 -10.5531597 -42.7617455
  -4.9574442 -10.0431194 -43.2627678 -23.0146046   2.6086614  24.1634693
 -22.9180584   3.5122993  23.8738327 -22.1103210   2.2231245  24.1763897
  42.8714714  30.2534027  12.4506493  43.1462479  31.1800785  12.2087708
  43.6938667  29.9540234  12.8854523   1.9664726 -30.3963547   9.1077280
   2.8904626 -30.0507488   9.0084877   1.5319644 -29.6420078   9.5941668
 -12.6427708 -21.8240643   1.9512516 -11.7578239 -21.8320236   1.5177220
 -12.3974676 -21.9380264   2.8787115  -6.4012322 -22.3018780  33.2879906
  -6.4207778 -22.7499943  34.1262283  -5.5741181 -22.6646557  32.9113960
   1.5869871 -13.2066088 -30.5305977   2.5365481 -12.7950134 -30.4867783
   1.7779773 -14.1295519 -30.7900906  18.3257504 -16.2757416  -0.7444060
  19.1711388 -16.3427296  -1.3409284  17.8134518 -15.5279312  -1.1790860
  40.6234741   3.6106303 -16.0010929  40.4824905   2.8676937 -15.3876143
  39.6586723   3.6448205 -16.2761326  -1.6110655  -9.3747473  -1.0562348
  -2.3173110  -8.9202538  -0.6306818  -1.3070875  -8.7761106  -1.7504712
  31.6167660 -22.8857899  27.1243267  31.9937935 -22.7227879  28.0451488
  30.7226734 -22.4715462  27.2377796  39.7859077   7.9085240  -3.6857605
  39.0656052   8.3761578  -4.1209750  39.8933296   8.5269861  -2.9162884
  10.0959206  20.9791737 -25.6737213   9.9726734  20.1294346 -26.1931934
  10.9814482  21.1883678 -26.0606518  24.9181004   3.9405801 -28.8683662
  25.7992210   3.5481203 -29.2284088  24.5687656   4.1623769 -29.7487450
  19.1546955  14.5105877 -22.2793484  19.9098091  14.2560377 -21.7698250
  19.5637894  15.1414433 -22.8942432 -34.4673271 -15.7873964 -14.3851728
 -34.5806084 -15.2706766 -15.2299871 -33.5076904 -15.6540394 -14.3322382
   4.7141366  39.9641380 -28.0871315   4.4540257  39.9254494 -27.1551952
   4.9516587  40.8894730 -28.1322346   1.4935906 -35.2716370 -15.5752048
   0.9949451 -35.9329834 -16.1252041   1.2293339 -34.4378204 -16.0515270
  22.5978012  13.0168257  15.5402756  23.5053349  12.6916800  15.5516253
  22.0852432  12.2347479  15.9004984 -19.5882320 -34.0051003  17.3325729
 -19.5907402 -34.9542542  17.4254436 -19.0814648 -33.8775520  16.4939804
  24.3328953 -23.0906811  23.8580608  23.9821720 -24.0312119  24.0073814
  25.2544689 -23.3093777  23.6201687  43.5154724   5.0673347  29.6287403
  43.7313919   5.9997125  29.8045673  43.0249596   4.7923241  30.3646564
  24.5177650   8.5128174  37.8405800  24.9865074   8.6253910  36.9550591
  24.6270752   9.3640108  38.2335854  40.1594353  15.2334604 -27.2834911
  39.7035675  14.7579288 -28.0077229  39.7546463  16.1008091 -27.3253326
  22.8900509  -4.5868344  13.8045206  23.3495979  -4.8863115  13.0122089
  21.9204865  -4.6823258  13.5043402 -11.1271696  -7.6407752  37.5516472
 -12.0672092  -7.5769110  37.1481400 -11.3665857  -7.5136156  38.4870796
  12.6759491  -9.3864012 -44.9642334  13.2597837  -8.7191095 -45.4984283
  12.6274815 -10.0518436 -45.7031975  -4.5844827 -23.2006760  22.6642590
  -5.2452960 -22.6218071  23.1200371  -5.2129693 -23.8011265  22.1620083
  -1.0772976  40.9622803   7.2772565  -0.3028735  40.5528488   6.8859668
  -1.7610567  40.3374214   7.0576754   0.7098590 -20.4563751 -24.1960392
   1.5719491 -20.7363815 -24.4965000   0.4252204 -21.1459045 -23.6048641
  24.0262794 -15.4567986 -19.0879974  23.4983902 -16.2114887 -19.4440880
  23.2479973 -14.8900146 -18.8530388  31.3961258 -17.0645199  13.3411427
  32.2391129 -17.4147358  13.6790400  31.4436550 -16.1218700  13.6671276
  11.1054554 -20.5854816  20.5398655  10.2958832 -20.7170162  20.0333271
  11.2854881 -21.5354233  20.7149143  -3.1242814 -40.2540512  -4.9856739
  -3.7949390 -39.5617294  -4.7512784  -2.6657791 -40.2614479  -4.0849614
  18.6022491 -12.0478544  13.8861418  19.3443089 -11.5772686  13.4150410
  17.8971405 -11.9415455  13.1437807  12.2279816 -25.2924442 -37.9165726
  11.9981289 -26.1466541 -38.3185196  11.3999128 -25.1846027 -37.3633957
   3.5339253 -19.1469154  -2.7136979   3.8957932 -18.4400482  -3.2162929
   4.0472984 -19.1773396  -1.9088392  12.9272051  -2.4086940  48.3779335
  13.6960497  -2.8272619  48.7983589  13.1790085  -2.5090935  47.4320755
 -21.1857109  -3.3144531   7.3237286 -20.9835930  -3.7611094   8.1520348
 -22.1490517  -3.5408142   7.2280502 -13.0621271 -10.1340113  -4.3886786
 -12.7058992 -10.5783539  -5.2209907 -12.2772236  -9.5242691  -4.2066445
  15.0913544 -37.9500427  11.3527985  14.2402744 -37.9617882  10.8243504
  14.6958914 -37.5214348  12.1364460 -31.2874908  14.8313799 -31.6733799
 -31.2950230  13.8973188 -31.3606663 -31.4050922  15.3533545 -30.8653584
 -10.1234541  15.4602661 -32.5419350 -10.2459669  14.5286522 -32.3147621
 -10.6474314  15.5690737 -33.3528748 -42.5171814 -29.7442188   7.5243750
 -42.0259705 -30.4819431   7.0621939 -43.2823029 -29.6564960   6.9805913
  17.2649937  41.9809113 -13.6063299  16.8646984  42.7977295 -14.0234985
  18.2119637  42.0496521 -13.8971853 -40.8221130  31.9218044 -14.8349066
 -41.7141190  32.3273506 -14.8091259 -40.6576233  31.8659019 -13.8658400
  18.0506248 -27.8244038   0.6070163  18.3036995 -28.7231255   0.8841842
  17.5407333 -27.5705280   1.3992406 -34.2331276  34.9417000 -15.7579727
 -34.9679794  34.5803909 -15.2367830 -33.9747009  34.0814438 -16.2446117
  19.2736740  26.3120937  -6.5122619  19.9168530  27.0571766  -6.7900553
  18.5927124  26.5096607  -7.2269607  16.1709957  27.3533192  31.4380760
  15.6301451  28.0222359  30.9344196  15.7100830  27.4207573  32.3345261
  38.1084442  35.2037964  -6.0087786  37.7258148  34.6707115  -5.2818203
  37.2805290  35.5282745  -6.4239106 -26.5528145  28.3896618  10.6167202
 -26.0808697  29.1915207  10.2666321 -25.7648315  27.8581409  10.8227739
   9.2850246 -35.0954475  28.1803131   8.3235731 -35.1468658  28.1559620
   9.5219231 -35.5418472  27.3242855  31.1764221   8.1740980  -1.0164398
  31.7877083   8.8667526  -1.2246830  31.2389469   8.1854219  -0.0615664
  -0.6307409  22.7247543  -1.3834199  -1.0766729  22.9696121  -2.2275252
  -0.8852355  23.5061684  -0.8394351  11.9140015 -18.7370491  -7.2721529
  11.5162201 -18.8720512  -8.1351023  11.3588104 -18.0531807  -6.8991723
 -17.6237621   4.4202652  -4.6376653 -17.9629288   5.3537140  -4.8854618
 -18.4620895   4.0113716  -4.3699527  39.2630577  13.4435034  28.5726414
  39.6265793  13.3403597  29.5196934  40.0434494  13.7081814  28.0833797
   4.8292141 -29.9146385 -23.8533669   5.4575944 -29.5877323 -24.5673695
   4.1816430 -29.1566601 -23.9620686 -20.1605244  23.8891144  26.3349323
 -20.3649368  24.7422085  26.7517147 -19.1613541  23.8729324  26.4084492
  29.7242889  23.0896511 -19.2609520  29.4825916  22.5914631 -20.0573349
  29.4362831  22.4944477 -18.5602570  15.5867271  11.3226938  16.8328590
  14.7565813  10.7367487  17.0608253  15.4899330  11.4088211  15.8714581
   5.7428422   1.4714354 -48.2596283   6.6539159   1.3919857 -48.1323776
   5.3419704   1.0051174 -47.4772224   4.2449393  46.5940514  22.7635231
   3.5108836  46.5678940  22.1419468   4.0635333  47.4709930  23.1565323
  25.2796516  18.4096966 -17.7096348  25.6388016  18.4789982 -16.8400002
  25.7192364  17.5498314 -18.0312099  10.6819468 -17.9383087  -0.1647344
  10.5973768 -17.5957699  -1.0365112  10.0086155 -18.5773983  -0.0671163
  14.6567545  24.1011600  13.2478056  14.8666553  23.7644444  14.1846380
  13.6882429  24.2263165  13.3126659  -9.0473652  -5.5447059   8.4961424
  -9.9919758  -5.3768420   8.4005432  -8.7140627  -4.6763644   8.7525969
  35.6858406   8.5035276  23.6639519  36.2538567   7.6782374  23.6480274
  34.9414978   8.0653524  24.1906166 -33.0453110  -0.1246856  32.1615982
 -33.8635139   0.2046410  32.5973015 -33.3989029  -0.8601695  31.6529732
  34.4691315  -1.9452665  16.5894413  34.1259308  -0.9958873  16.8140678
  35.3500175  -1.8650944  16.8822556  38.9641037  -6.5271602  28.0449505
  39.4048843  -5.6542058  27.8637333  38.0404968  -6.2806821  28.1039333
  12.6674347  -0.5957995 -48.5920334  11.8273211  -1.1597378 -48.5267220
  12.4055347   0.0970999 -47.9741173  17.3996716  21.6277790   5.5782604
  16.5299988  21.9438782   5.2327423  17.0178299  20.8458233   6.0499539
  39.1630058   4.6950264 -23.2395668  38.7132416   4.7552562 -24.1113739
  38.9434090   5.5069041 -22.8063202   0.9984615 -20.0095043  30.7018490
   0.0593780 -19.8195534  30.9457359   0.8563182 -20.4697723  29.8204021
  37.4012833  34.1290779  -3.5639338  37.9548569  34.0105858  -2.7618062
  36.7253304  34.7876091  -3.2180059  28.1541958  23.4478359  16.6890545
  27.3406353  22.9428253  16.3677006  28.4826660  23.8173866  15.8332863
 -22.6422653  -8.0755653 -37.3818245 -23.5701199  -8.1605415 -37.6197243
 -22.2471886  -8.6709461 -38.0192223  14.5455608  51.4677544 -16.3773899
  13.5992002  51.7117805 -16.2794609  14.6101475  50.9405594 -15.5389557
  11.0672531  43.8813515  24.4091625  10.6858883  44.4073067  25.1526871
  10.3235874  43.3626175  24.2014484   5.9340830  23.6393757  19.9252777
   6.5972443  23.2018070  20.4595394   5.2417521  23.7860146  20.6252766
 -18.0957165 -11.2537985 -15.0450649 -17.6017361 -11.7425795 -14.4498987
 -17.8580074 -10.3458929 -14.7913046 -26.4987926 -31.7345200  24.2345657
 -26.9774723 -31.0206871  23.7517071 -26.9376659 -32.5456238  23.9333858
 -18.1774235  26.3747368   5.0716891 -18.0792503  26.7481651   5.9624977
 -17.6093254  26.9603825   4.5489216  -9.4932203  13.7931700  22.8711700
  -9.6324406  14.3488884  22.0869102  -9.2491026  14.4982023  23.5299911
 -17.6805115   1.7268173  29.2675953 -16.9092255   2.3247063  29.2827301
 -18.1382771   1.9562927  28.4309826  18.5220699 -36.1449890  -5.5614247
  18.4192944 -37.0392494  -5.1575851  18.0722656 -36.3324242  -6.4343729
  -0.9794352   7.2070684 -30.2596684  -1.6331387   7.2110558 -29.5415459
  -1.2397970   6.4099231 -30.7172661 -10.8463488 -40.4943466 -18.5861168
 -10.8776474 -41.5449409 -18.4680920 -10.1806087 -40.5171013 -19.3060741
  34.5310631 -15.4052696  34.5202713  34.9114418 -14.5699978  34.8325844
  34.8534698 -16.0740681  35.2132492  27.4975357  14.6543636   9.0848818
  28.1154804  15.3873062   8.6974201  27.8243961  14.5588188   9.9539986
 -14.3653078  39.4871407  22.3707085 -13.9693031  39.8157578  23.1962814
 -14.0372829  38.5602684  22.4795265 -42.2589722 -31.1823845 -17.1221733
 -42.9934998 -31.5626545 -16.6168671 -42.0081749 -30.3879261 -16.5765858
  13.9316072 -36.2237740 -11.4337749  13.3623075 -36.8111572 -11.9387856
  14.5360060 -35.8864174 -12.0930052   0.3082378 -35.9580345 -21.4307423
   0.0142751 -35.1434975 -20.9945793  -0.1939102 -36.6117821 -20.8507385
   1.0357568 -24.6794930  10.9695530   1.9320540 -24.6296101  11.2921438
   1.1067125 -25.3786659  10.2875891   9.1176691   7.7503209 -19.1913891
   8.5916872   6.9806352 -18.8481865   8.7272215   8.4755449 -18.6186447
  25.2977962  38.3126144  -0.9545016  25.5506172  37.8659630  -1.7884417
  25.9280586  39.0263100  -0.8564332  30.1504192 -27.1785393  31.8414288
  29.7234249 -27.5212803  31.0238762  29.9266491 -27.8780727  32.4777374
  25.4042854 -30.9876900 -30.2419968  26.0293636 -30.6158009 -30.9521046
  24.8434944 -30.1768284 -30.1595020  43.6827736   4.7800188   8.9226065
  44.1769600   5.5912242   9.1744452  43.1936531   4.5716367   9.7142696
 -42.4287987   1.2846036   7.7947726 -41.8089066   1.5749443   8.4900513
 -43.2735481   1.3412559   8.2038050  23.8064537  43.1938744   9.3956718
  24.4105816  43.6060791   9.9936457  24.1372852  42.2408104   9.4251757
   0.2229940 -41.3307991   3.7142789   0.9879087 -40.7567368   3.7072303
  -0.4860532 -40.8650055   4.1092381  -9.4028082  -3.2111182  26.5926590
 -10.0450554  -2.4612172  26.7820911  -9.4293976  -3.6711199  27.4096813
  -5.4497490   6.0804191  18.2436142  -5.9908614   5.6476526  17.5432167
  -5.3340378   6.9582934  17.8371620 -18.0238438  17.1084480 -29.4495754
 -17.6113892  17.4655609 -28.6736603 -17.4353333  16.5119457 -29.8862076
  19.1621685  29.8533592 -27.6272373  19.4663143  29.3413086 -28.4083595
  19.7233963  29.5214405 -26.8638992  38.7649651 -10.2010975  12.1300402
  38.6745071 -10.0631142  13.1106615  38.2811623  -9.3729820  11.8116655
  15.3842125   4.3008180  31.5254459  16.3130970   4.2337236  31.1236286
  15.6183701   4.9127049  32.2424927  -4.8122683  31.3888206  -8.0691881
  -4.7794843  30.5287094  -8.5377932  -3.8863254  31.3725433  -7.6957984
   1.1871976  31.8065605  24.8007755   1.2265621  32.5628319  24.1720810
   0.3274646  31.4110336  24.5786533 -20.2326107 -23.8227196 -19.1307602
 -20.2599468 -23.5489273 -20.0670166 -19.4955654 -23.2780609 -18.8065205
   1.8143435   3.1634951  25.8640175   2.0514562   4.0018597  26.1962166
   2.1461112   2.5491705  26.6016560  12.8232031  -3.6402054 -25.9168320
  13.3955612  -2.8474975 -25.7465286  12.3980837  -3.2900836 -26.7659302
  11.3881121 -41.1304169   4.2822728  11.8581486 -40.5141068   3.6859739
  11.5277624 -41.9547272   3.8000844 -32.0977745  -0.9342370 -38.9690361
 -32.0584297  -1.6756179 -38.3089790 -32.1692047  -0.1770767 -38.4006462
  23.0540543   3.6363108  12.2163115  23.7197151   3.1128075  11.6854982
  22.3209171   2.9425268  12.2582426  18.3001785  15.5728149  36.4848061
  17.9455109  16.4735260  36.1914444  17.5405331  15.0070486  36.1589546
   1.8355362  -1.5564582 -24.1518669   2.2167208  -0.6379694 -23.9606495
   2.1498778  -1.6242920 -25.0601196 -16.7969170  18.4590168 -27.3706379
 -17.0582733  17.9129295 -26.5791225 -15.8204002  18.5042152 -27.3163834
 -26.4162483  22.9263935 -13.1212091 -26.5744343  23.1947174 -14.0338564
 -26.0852585  22.0282307 -13.2430134  -6.4377761   9.4782104  35.3024902
  -7.1299081   9.0767069  34.7748184  -6.1735001   8.8400240  35.9585342
  -2.4234443 -39.2142143  -0.4342740  -1.6454710 -39.0019684   0.1006777
  -2.2083945 -38.6414642  -1.2554266  -5.8373399  34.9549103  20.4212017
  -4.8706317  34.8089294  20.5903053  -6.1548395  34.1619644  20.8823681
 -29.9244423  34.9385109  23.5493279 -30.1974773  35.8703117  23.7106342
 -29.0878162  34.8993111  24.0399628 -32.4567261 -17.5062809  30.1237717
 -33.2745056 -17.9769268  29.9394703 -32.0834541 -17.2918644  29.2442112
  13.8188095  23.0381012  -1.4264941  13.1287785  22.4604683  -1.7995516
  13.3262472  23.3920326  -0.6340259 -16.4833603  23.3617268 -31.4929237
 -16.7928200  22.5227032 -31.1318169 -15.9119024  23.1662350 -32.2291946
 -38.4339600 -16.1385098  16.8227081 -37.6744919 -15.6893673  17.2028446
 -38.1920166 -16.3187523  15.8982096  -6.0725780  40.5008545  28.5151844
  -5.5893836  40.1625023  27.7934284  -5.6726432  41.3450928  28.7264404
  31.2091351  -2.6454268  -3.2179091  30.7190895  -2.7736683  -4.0801196
  31.7018566  -3.5295041  -3.2496479  42.2250137   2.4845629  28.8731918
  42.7403679   2.1969416  29.6529312  42.4423637   3.4805613  28.8888092
  10.9238243  -8.3176107 -38.3197861  11.2730560  -7.7759533 -37.6506310
  10.7893305  -7.7394390 -39.0548439  -0.7733088  41.7162857 -15.0303001
  -0.6407333  41.8494301 -14.0841980  -1.5342780  42.3249016 -15.2153549
  29.9494877  39.6385384  -0.8446175  30.6971378  40.1643562  -0.5338973
  29.7632027  39.0531883  -0.0887397  -5.0806236 -28.3317623  30.6936245
  -4.2604342 -28.7372036  30.9802608  -5.7603431 -28.6741676  31.3610725
  28.5803738 -34.7926903   8.2390299  29.1791191 -34.2344856   8.8163233
  29.1064281 -35.6223640   8.2052469 -27.8366203 -35.9589462  -9.8357973
 -27.6791725 -36.9000206  -9.7380848 -27.6421261 -35.8799896 -10.7994509
  27.7851906  25.6975479  -0.3078263  28.2973843  24.9425316   0.0243655
  26.8690605  25.3984528  -0.1349239 -18.2909431  13.8945494  33.6603279
 -17.9658165  14.7852592  33.4955826 -19.2476025  13.9707727  33.2657967
  15.6432571  17.0293674  -5.7481022  15.0997972  17.3068848  -6.5029655
  14.9797134  17.2154350  -5.0016499 -21.3616409 -10.4200773  38.7702637
 -20.9279232 -11.2149382  39.1550102 -20.5714607  -9.9923820  38.3984528
  -7.8162785  25.7887630 -18.3266163  -7.7440763  24.7898960 -18.3623066
  -7.6707602  25.9722767 -19.3139362 -38.7020187 -30.7119465  -1.6092049
 -39.5366669 -30.3208427  -1.6567246 -38.9357567 -31.6683064  -1.5640903
  42.6365700 -15.2759209  -4.9272580  42.0578041 -15.9546928  -5.4249926
  42.9868393 -14.8023996  -5.7115426   9.2499437  38.0265388 -13.5988531
   9.0764027  38.8680763 -13.1212311   8.3350582  37.6896896 -13.6818886
 -18.6613121 -38.8282127  23.3501854 -18.4534016 -39.2509346  24.1782894
 -18.3252640 -39.5675278  22.7121525 -43.8534279   8.5926037 -22.5536442
 -44.3163986   7.8463931 -22.1049023 -43.7966309   8.1874399 -23.4786892
   9.1980820 -14.7259426  34.0435257   9.9046745 -15.3578520  33.7265778
   9.7354879 -13.9074736  33.9995728   5.8891568  35.4682083   7.1225004
   6.2343884  36.0184364   7.8353453   6.6360087  34.9634247   6.8086023
  15.7393618 -24.4555836  29.9931984  15.5544462 -24.1875877  30.9276695
  14.8692741 -24.8453846  29.8094025  27.9640617 -37.2859268 -19.3552399
  28.3294449 -36.5470772 -19.0022812  27.0867462 -37.0045013 -19.6645832
 -41.2273636 -20.7043457  -6.6785645 -41.5035744 -21.2121677  -7.4938469
 -40.4164352 -20.2358494  -6.9547420 -28.1175385 -40.7730217  -8.0534401
 -28.4160995 -41.7409019  -7.8901668 -27.8875828 -40.6045914  -7.1015596
  -8.8272848  28.1490993 -17.0185814  -9.6156826  27.6278133 -16.8448086
  -8.6697302  27.8493366 -17.9485626  18.2156219 -33.6169128 -28.4710598
  17.9556465 -34.2556992 -27.8218880  19.0240097 -34.0627708 -28.8705788
  -5.9566321 -39.5318375  -1.9552217  -5.3529658 -39.1796989  -1.2917359
  -5.5296745 -40.3734322  -2.2163970  14.5880919 -13.3295259   6.2736287
  14.4841461 -13.7963400   5.3796926  14.3623476 -14.0598173   6.8831549
 -21.2123299  -3.8596451 -32.8325424 -20.5098648  -3.6263309 -32.1653290
 -20.6296959  -4.0411921 -33.5972404  39.2489128  -5.6590543  31.8043785
  38.3544426  -5.9469414  31.6692047  39.1320496  -4.6482086  31.7612095
  19.5474854 -30.9066620   5.2077160  18.6060734 -30.8868923   5.0669203
  19.8836899 -30.4258499   4.4395213  39.5637779 -30.5231972 -17.6085625
  39.5275497 -30.8778133 -18.5050125  38.6053429 -30.3437195 -17.4645061
  15.6521444  51.9963799  12.0079937  14.9168034  51.5518608  12.2905340
  16.0098476  51.2780037  11.4095449 -44.5436745   1.9305257  30.6154766
 -43.9092216   2.6297972  30.8616467 -44.5874481   1.4650987  31.4726791
 -17.0734348 -10.7229319  38.0475388 -17.6275101 -10.3609695  37.3228645
 -16.5220490 -11.4017658  37.6214943  19.1500435  38.3021049   2.2406719
  18.7444191  39.1710548   2.5720341  19.6994991  38.7146606   1.4774714
  21.4043636  16.1625767  -2.1044927  21.8814049  16.9288101  -1.6132134
  20.6414299  16.6615868  -2.4484782  39.5266571 -10.1852064 -26.1921272
  40.3102226 -10.6641703 -26.6526604  39.3632011  -9.5444231 -26.8912506
  37.8331871 -13.2184391 -27.5081940  37.3253212 -12.4635878 -27.1536217
  37.6576195 -13.0734921 -28.4819889 -14.5235214  -4.5988760  26.4205284
 -14.6248789  -5.2022133  27.1423492 -14.9345617  -5.0919304  25.6743507
 -42.5676117 -13.0606213  16.9535084 -41.5621948 -12.9465590  17.1232929
 -42.6187439 -13.9814339  17.2176704  -5.8477879  18.7168941  45.4548454
  -5.2072940  18.0055389  45.4841957  -6.2456460  18.5486889  44.5845413
  -5.5922399   1.9133070 -19.7749062  -5.1951137   2.6441410 -20.2934418
  -6.5267415   2.1607897 -19.7501125 -28.5045166 -11.9909821  15.0490608
 -28.4408913 -12.9720621  14.9088783 -28.3386307 -12.0002775  16.0562305
  14.8503475   9.6399593 -10.4498014  14.8556204   8.6955109 -10.2723722
  15.0998955   9.9862976  -9.5411901  -0.0159894  14.9345074 -39.2784882
  -0.3928090  15.8077869 -39.0242081   0.7869207  15.1701260 -39.6960335
   9.5239782  17.4427910   5.7702579  10.1697273  16.7944965   5.9484301
   9.0580273  17.1085606   4.9933071 -27.6782093  -5.6031613 -19.6736603
 -28.1547318  -4.8101792 -19.7797909 -26.8692207  -5.4141917 -20.2354889
  11.2009048   3.5031447   7.4674516  10.8001442   2.6581941   7.2517667
  11.6258936   3.1821084   8.3650351  19.8600121   4.2011623   7.9650793
  20.6870327   4.7021723   8.1728849  19.4572144   4.7212963   7.2606640
 -31.6324253 -11.4368439 -14.6535692 -30.9677639 -11.9811144 -15.1125498
 -31.2260704 -11.3422632 -13.7944784   4.4563270  42.9050255  -3.3758526
   5.3386326  42.3887749  -3.1405175   4.6137204  43.5727119  -2.6422837
   7.7067089  30.3054142  21.9506416   7.8275943  31.1919556  21.7063408
   6.7444782  30.1819439  21.8015041 -11.7419243  37.4137115 -20.1621323
 -12.4836884  37.0873222 -20.6204319 -12.1195259  38.2302933 -19.6863461
  -8.6202774  16.6416874  28.5276451  -8.3529272  16.4933567  29.4626274
  -8.2083530  17.5508347  28.3929443  21.5438080   6.5800366  23.8499603
  22.0258942   6.2826838  23.0466671  20.8429127   5.9295273  23.9153767
 -15.1380835  26.5536995   8.5435305 -14.6058016  25.9078388   8.0305300
 -14.4785728  26.7352772   9.2426958  43.9579239  -0.5808308 -25.3234272
  43.5853386   0.2683901 -25.5324059  44.0683632  -0.9173374 -26.2549534
 -43.8269081 -29.0742893  17.9753780 -43.1756058 -28.7886810  18.7048664
 -43.1991463 -29.0268021  17.2068176  36.7390671  -8.4966536   3.3799918
  37.2075424  -8.2407408   2.5383103  35.8375130  -8.1291065   3.1226602
  18.3908844  44.3421326  -8.7452717  18.5075092  43.9228516  -9.6376820
  19.1040077  43.7581673  -8.2410851  42.0103989  -1.2427104 -13.8605776
  42.3921890  -1.3304772 -13.0017338  41.2469406  -0.6996808 -13.7300348
  27.9471798 -15.4294519  37.5894547  28.5075035 -16.0838947  37.9860382
  28.0951138 -14.6884279  38.2277641  40.6865082 -14.3184347  10.0463467
  40.5470314 -14.3781786   9.0614080  39.9237251 -13.7523489  10.2836351
 -43.1227837 -24.7829800  14.6186781 -42.7638550 -24.4630909  15.4693336
 -43.3235207 -23.9329300  14.1937532  36.3678551  26.3120575  -2.9093797
  36.9154205  25.8998280  -3.6800420  36.6546097  27.2466087  -3.0887191
  14.9948072 -37.8046303  17.4570503  15.2559080 -37.6007919  18.4103279
  15.1782265 -36.9550056  17.0470734  14.8932228   8.0611229 -31.1506538
  15.5581369   8.3943338 -30.5304852  15.3970270   7.4988942 -31.7026215
  16.1932430  -2.2943413  15.2649393  16.0401287  -2.2704921  14.3352957
  16.9484692  -2.9317939  15.2421274  -6.3943057  44.6683273  25.0776062
  -5.9809499  44.0766830  24.3988075  -6.8511739  44.0010033  25.6135769
 -33.7513962  33.7857132 -24.0794754 -34.5809021  33.6021538 -23.6713028
 -33.4785080  34.5430145 -23.5482540  27.1781368 -18.4454346  38.5480003
  28.0573196 -18.2447586  38.3790131  26.9462318 -17.9864330  39.3682060
  34.7897835  36.7727051 -14.8587513  34.8899727  36.8741951 -15.8157911
  35.4513817  37.4845352 -14.5705471 -12.9981794  17.4274025 -48.3421516
 -12.4718618  18.1120205 -48.8790092 -13.9322596  17.8028831 -48.5129852
 -32.3680496 -23.3858604   7.9767294 -32.5211296 -23.5786419   7.0667033
 -32.0820427 -24.2396355   8.3490353 -25.0854530  21.0472279  15.5832663
 -24.1757889  21.2426605  15.2817574 -25.1205139  20.0882721  15.7470398
  -0.9478798 -27.1515369  16.9627438  -1.5291950 -27.6374302  17.6123562
  -0.2894396 -27.9154453  16.7516270 -34.8043861  27.4345932 -24.1922035
 -34.0450020  27.2766476 -24.7858829 -34.4792976  27.9283733 -23.5003185
 -14.0611372  -9.6791687  24.2791061 -14.7396755  -9.9384031  23.6998024
 -14.3274412 -10.2210159  25.0880260  16.3207264   4.3202682  20.4219685
  15.8991070   4.0769267  19.5227814  17.2033329   4.0340362  20.2089558
   8.5098171  13.4606600 -26.6257191   8.0321875  12.6800528 -27.0010071
   9.4346886  13.1208630 -26.8725662  -6.3885684 -15.7159624 -10.0468159
  -6.6877627 -16.6340752 -10.2870035  -6.9559317 -15.1731949 -10.5759497
  15.0441360   9.2143078 -23.5735493  15.6618910   9.9403887 -23.9447460
  15.0809526   8.6396809 -24.4055367 -33.3829231   5.4848013 -17.5766544
 -33.6184502   5.0810986 -18.4061184 -32.9448700   4.8490186 -17.0809593
 -10.8195229 -26.3681717  20.0529633 -11.5720396 -26.8987179  20.4134979
 -10.2777281 -26.3586464  20.8900604   7.9818215 -21.8869209  34.0626793
   8.4851151 -22.6030369  33.5699196   7.2818694 -22.4084015  34.4591904
  25.0932617 -17.9361763   7.8107252  24.4045086 -17.2271652   7.7447987
  24.9245205 -18.2073555   8.7807522 -14.4896193 -39.5089455   0.8380761
 -15.3210354 -39.5787888   0.3284495 -13.7743101 -39.5124779   0.1663253
 -24.3356590 -27.7160740   5.1511674 -23.5328751 -28.2462292   5.4025822
 -24.6971073 -28.2152042   4.4558215  13.8632421  -6.9939728  30.0710716
  13.3791189  -7.8586764  30.2825985  13.5554705  -6.3956280  30.7971191
 -37.6954918 -33.7950134  14.0462751 -37.8422508 -33.3652496  13.1961737
 -37.3953133 -32.9419594  14.5029459   6.8204608 -13.6662235  40.6689186
   7.5771480 -13.1637993  41.0383949   7.2291865 -14.2560415  40.0493202
  10.5074682  40.6354218 -19.4150295   9.7717113  40.8538818 -18.8098259
  11.2829103  40.6557045 -18.8467121 -20.4336815 -27.3624554   7.2041636
 -19.6369743 -27.6936188   6.8187151 -20.6016769 -26.4943619   6.7019920
 -21.0642853 -39.2387123  -6.1391096 -21.1526928 -38.9017334  -5.2201843
 -21.2981777 -38.4764748  -6.6755104 -35.2176094  -7.0616846 -17.3285904
 -35.8714943  -6.3631792 -17.1371956 -34.5751114  -6.9072161 -16.6035271
 -15.3307476  22.4671059  30.5508842 -14.4335318  22.7133179  30.2287941
 -15.2516632  22.6011848  31.4971123 -10.0962467  28.1531906  12.9077482
 -10.6766424  28.5776024  12.2179108  -9.4982662  28.9171829  13.1185560
  -7.2260423   1.9593732  22.0512199  -6.5510712   2.0778389  21.3626690
  -7.9902225   1.8249063  21.4612160 -20.1188221   4.7504444  40.2790222
 -19.1903305   4.4791088  40.2222366 -20.1715851   5.0913973  41.1902122
 -29.3912411   0.7965113 -41.8854752 -29.1243820   1.0568445 -40.9849281
 -28.9427090  -0.0959227 -41.9369049   4.1145844  26.1936588   0.2295516
   4.6465268  26.8452339   0.6437700   4.6789355  25.5218067  -0.1450928
  -8.6066208 -30.3521271  23.9635048  -8.7686090 -31.1527195  23.5361786
  -7.7818208 -30.5742474  24.4833641  12.4771900  27.4072666   8.9218416
  13.3449965  27.8291740   8.9089127  12.1102104  27.5922775   9.8022299
   0.6444404  28.3121033 -13.6951609  -0.2962424  28.0692577 -13.6498003
   1.0488946  27.5562859 -13.2021389  -6.7357192   5.8271666 -43.3723946
  -6.5128345   5.0061860 -43.8688583  -6.0911074   5.7733917 -42.6295090
 -31.0487480  25.4197979  -3.5046778 -31.3025284  25.5787334  -4.4297194
 -31.9086170  25.5279427  -3.0481992  42.4563942  19.8737011 -22.2256241
  41.8820267  19.1278534 -22.1326580  43.3399277  19.4865875 -22.2596798
 -35.8660164  30.7138252  21.0385704 -35.9187355  31.6352482  21.3926010
 -36.5789108  30.3065224  21.5300083  43.1055756 -18.8376789  13.8965282
  43.1897926 -19.4104652  13.0858154  43.7023048 -19.4643459  14.4852037
  14.2296419 -10.7527561  14.2668695  13.3047848 -10.7177649  13.9933071
  14.4789839 -11.5261354  13.6544037 -27.1277122 -33.1717415   3.5329409
 -27.3052998 -33.8643875   2.8582633 -27.8415031 -33.2961845   4.1915388
 -29.7321320  12.0781574  25.6371727 -30.4071293  11.5981760  25.1211281
 -30.2294445  12.9114838  25.8115406  24.8884926  16.1024399  23.8505764
  25.3828354  16.9091034  24.0760441  25.6969490  15.6505003  23.3901215
 -17.9450989   9.6946650 -37.2139473 -17.4993210   9.3446026 -36.4077492
 -17.2726746  10.2633886 -37.4805183 -42.7716484   7.1911960  28.3796959
 -43.6787148   7.3268738  28.7788544 -42.8978882   7.6951346  27.5384102
  33.7555313  35.7428322 -11.6665630  34.1289673  36.5422707 -11.4082546
  33.9812546  35.1084328 -11.0092640 -36.1454430 -11.9994183 -12.6129990
 -36.9605675 -11.8610516 -12.0792236 -36.2697525 -11.4250727 -13.3551750
 -22.7565994   9.5722971  16.6677666 -23.6859703   9.1732054  16.7205086
 -22.2659092   8.7277250  16.5513954  19.3653603 -14.5439072  13.0308704
  19.5019512 -13.6415014  13.4044952  18.6554489 -14.4098740  12.3805914
  22.8831902  32.2959061 -11.7417860  23.5505772  31.5375404 -11.6946030
  22.5112171  32.0336761 -12.6219559  31.3487911 -11.4239988 -31.0137939
  31.6935062 -11.9553785 -31.7622623  31.0136852 -12.1489735 -30.4148865
  16.2763386  36.4185181  -9.3665237  16.2544174  36.8780746 -10.2278814
  16.4531689  37.1955948  -8.7640457 -13.8140078   8.0717096   4.7795739
 -14.7317572   7.8512135   4.3735847 -13.5996799   8.8826389   4.2488608
 -13.8261080 -27.1798878  -6.3919630 -13.2784996 -26.4011116  -6.2271600
 -14.6561852 -26.7528934  -6.6932740  24.5047722 -15.1063271 -15.2038584
  23.9102440 -15.7343836 -15.5870266  25.3822784 -15.5453463 -15.4484501
   7.3306036 -24.2789478  26.9993191   7.2496953 -25.0643635  27.6523132
   6.4040833 -24.0397396  26.9217854   7.2215099   5.9296718  24.2673817
   7.5101724   5.0662899  23.8494949   8.0865364   6.2871094  24.5546322
 -20.5321140 -27.5583515   0.2924716 -19.5211067 -27.5460682   0.1225208
 -20.5348816 -26.9554882   1.0775266  -2.1701219 -45.9046364  -3.1729448
  -2.9630408 -46.5408821  -3.1397889  -1.4330511 -46.5310211  -3.1365929
 -33.0977936 -12.0044451 -30.8443508 -33.6697006 -11.3541937 -30.3130741
 -33.5293503 -11.8353300 -31.7100182 -26.2591648  10.7645931  31.7221508
 -26.4739189  11.5010853  32.3233109 -25.7833271  10.1712370  32.3864403
  13.3582878   4.6861691 -32.8806877  13.8378325   4.7460928 -33.7070503
  12.6747656   5.4050908 -33.0161591  41.1163025   9.9036646  15.7680006
  41.5625191   9.0643835  15.4155855  40.1443024   9.5777445  15.7518301
 -22.6728878   5.7827644 -23.8608780 -22.7768135   6.7929859 -23.6986027
 -23.5407429   5.4945245 -23.4314899  13.5636978   1.4158068  -4.2145214
  13.5638456   2.4036114  -4.1271248  14.4851885   1.2216196  -4.2281103
 -18.1535664  25.9510612  20.9693775 -17.4674988  26.4488640  21.3853779
 -17.8205891  25.0486546  20.8947601 -35.8692703 -21.5033417  14.1691713
 -35.2667503 -22.0885563  14.5891275 -35.2415733 -20.8461914  13.7753410
  23.7942715  -6.2237635  30.5920963  24.1451015  -5.4829330  31.1024036
  24.4641151  -6.1808090  29.8534298 -21.3674049 -33.9126968  13.3955212
 -21.1584949 -34.7387543  13.8521099 -21.6595478 -33.4344711  14.2278624
  -5.5312643  24.4013519   6.5317693  -4.7676859  24.0510750   7.0603390
  -5.0656829  25.2068462   6.1358995  -0.1701547 -33.3239708  -7.9305496
  -0.6468586 -33.9027100  -8.5922155   0.1555970 -32.6493988  -8.5746212
 -29.7312374 -13.4306116   5.3892570 -29.6723099 -13.8695040   6.2687221
 -29.8324852 -12.5326509   5.6688933 -35.4312706  32.1728477 -20.6581268
 -35.8641853  32.9482803 -20.1899014 -35.6257973  31.4948101 -19.9517403
 -37.4603920  21.8746815 -13.7679186 -37.9110680  21.1965694 -14.3634968
 -37.3406830  22.5602341 -14.4937201  30.6990948  -3.8716810 -28.3484287
  31.2130184  -4.4665499 -28.9657059  31.4342594  -3.4801333 -27.8368607
  -0.0102310  11.0949430  25.8039246  -0.7976561  11.0841026  25.1864510
   0.6194125  11.5813179  25.2731075   0.5346790   7.8157158  38.2826347
   0.8767775   7.8356686  37.3694572  -0.4324722   7.8980808  38.0717773
 -33.9830475 -11.3734751 -33.5907021 -34.2451401 -12.2459211 -33.9403343
 -33.0552063 -11.3792143 -33.7188148 -42.5289192   9.4224539   4.2426443
 -42.4113045   9.9629383   5.0787473 -43.0439301  10.0732937   3.6840477
 -22.8258038 -40.7580338 -10.8546791 -21.9840412 -41.0832520 -10.4930401
 -22.8407383 -39.8026619 -10.6906776  -7.6843476  -4.0591931 -25.8601379
  -8.6308546  -3.8222558 -25.9585991  -7.4762349  -4.0472665 -26.8270817
  -9.9988708  22.7976646  42.3512154 -10.9748783  22.8549709  42.2254753
  -9.7914581  22.0371170  41.7956467 -10.9291153 -44.7444572  -7.5227690
 -11.0540018 -43.9255943  -8.0325327 -10.0836058 -44.4452629  -7.0312505
   9.8985767  -2.5762880 -21.4176407  10.0321121  -2.4104137 -22.3435001
   9.4870319  -3.5000069 -21.4981899  13.0506544  20.4134216 -25.0283012
  13.0784073  20.8697243 -25.9509716  13.8148556  19.8442612 -25.1546459
   8.2855492 -18.4355755 -22.0071888   9.0388451 -18.8614311 -22.3222351
   8.5774364 -17.4898567 -22.0303364  26.2262001 -13.4746380  -5.4164205
  27.1889038 -13.2522135  -5.6111984  25.8693123 -13.4538956  -6.3568597
   3.2605746 -15.2006989 -40.0354233   3.9665875 -14.6101694 -39.6429329
   3.0905316 -15.7873087 -39.2796478  34.9802666 -19.9140110  -5.7159257
  35.7034454 -20.0637302  -5.0467725  34.7441673 -19.0066204  -5.5083404
 -19.1390953 -37.7439957   7.6970878 -20.0784931 -37.5002289   7.4325228
 -19.2741089 -37.9261360   8.6079378  33.7766876 -30.5488224 -23.0502224
  33.6046486 -31.4944286 -23.1239681  34.3368111 -30.4066772 -23.8441105
  35.1909370   6.4990525  11.4873161  35.0402603   5.8869152  12.2156677
  35.3252678   5.7995481  10.7830448 -38.8809242 -18.5947514  12.7911654
 -38.9093361 -19.5246277  13.0699749 -39.8922691 -18.4753284  12.6336212
 -25.4599686 -35.1408310  -5.2479968 -26.4148445 -35.4175491  -5.5611591
 -25.0190792 -36.0170250  -5.3703885 -12.6442757  23.2648411  -2.7615464
 -13.0488682  23.7817917  -3.4344943 -11.8656635  22.9413490  -3.2291462
 -29.3285503 -30.7515488  11.7728109 -29.2171154 -29.8784428  11.2943249
 -28.4618492 -31.1388931  11.3891687   2.3062646 -20.1204910 -32.8696098
   1.9133464 -21.0389900 -32.6398354   1.8356102 -19.6283283 -32.1432037
  -9.7528429  20.7622623  22.6290531  -9.9668798  20.9887276  21.6882858
 -10.1635303  21.5896530  23.0315323 -12.1989107 -50.3543167  18.6412888
 -12.0389643 -51.3325882  18.6160927 -13.0557699 -50.2678833  19.0675716
  26.8067303 -16.5571194  30.9110394  26.1507397 -17.1536922  30.4935379
  27.1117630 -17.1257744  31.6288261 -19.9877453  17.1737804  43.7651672
 -19.2950745  16.5236511  43.7053947 -19.5247192  17.8506775  44.3605042
  24.5142612 -34.0858955 -26.4554272  24.8123989 -33.1141472 -26.7580490
  23.5717068 -33.8417854 -26.1956577 -13.1761417  11.6136475 -18.1009922
 -12.4994135  11.7404861 -17.3936672 -13.9727325  11.3797760 -17.5802078
  39.5926361 -11.1802197  31.4633274  39.7633934 -11.9038763  30.7379551
  39.0837021 -10.5575180  30.9504070 -11.2134304 -18.3850822 -22.6890697
 -11.8547773 -18.7204781 -22.0797348 -10.4975853 -18.1505547 -22.0767651
   6.4631515  -8.1712484 -18.4008579   6.4540620  -7.2485766 -18.1327572
   6.5219178  -8.1062555 -19.3330593 -38.3470726 -23.7585068  21.0787296
 -39.1132889 -24.3888531  20.8924446 -38.4507904 -23.1073093  20.3993568
 -25.9891682  16.5217514   1.7388723 -26.5370007  17.3222389   1.8442460
 -25.2207890  16.9498711   1.2964746  22.9989033 -16.2160873   8.1554623
  23.0107822 -15.9335632   9.0316734  22.4007473 -15.5829363   7.7171073
   1.8114412  38.1184921  23.9894295   0.8858433  38.2603531  23.6114025
   1.8764833  37.1436653  23.7253475  13.8058529  20.3981972  10.5992785
  14.0068769  21.3533707  10.5848274  14.5869589  20.0132103  11.0111513
  26.1305046  10.6815090  13.1338654  26.7250786  11.0308456  12.4157410
  26.8523827  10.1224976  13.5944233 -41.9266396 -10.4627504 -17.4621773
 -42.6022949  -9.9552803 -16.9683113 -42.3980293 -10.8965368 -18.1096001
 -36.9383278 -19.3392353  27.5069542 -37.7967148 -19.4522839  27.1147633
 -36.8761330 -18.3653717  27.5856285 -40.0923920  15.1142149  -8.9067049
 -39.1829758  15.1838398  -9.2633047 -39.7970161  15.0545168  -7.9425049
 -14.4786987  -6.4813857  28.4606133 -14.2337656  -7.1772175  27.7587547
 -14.8638744  -7.0820656  29.1751938 -22.8058853 -12.4852247   7.1913266
 -23.3393211 -12.1069155   7.9866180 -22.9067593 -11.7419033   6.5677285
  -1.1570797   1.5189080  16.9599609  -0.3823310   2.0840502  17.0496616
  -1.1838179   1.0586913  17.8309345 -21.1822491   5.3989706  -3.6589177
 -21.0474396   6.2714934  -3.3432498 -22.1074123   5.2131748  -3.2000589
  30.5118790  24.5627995   7.0501661  31.4473724  24.5846996   6.9649510
  30.2331867  24.2182674   6.1816015 -24.1837616  14.5894012 -22.1484661
 -23.3127403  14.5311308 -21.8159351 -24.1906853  13.7860022 -22.7051506
 -38.7982788  -2.6157103  25.9445915 -39.5662231  -2.2015333  26.4628811
 -38.6544571  -1.8613455  25.3670082  41.7936859  12.1311283   9.2050123
  41.8829002  11.1920137   8.8465796  41.1537285  11.8981142   9.9339561
 -17.2529488 -24.9796333 -18.7002201 -17.1282330 -24.3624096 -19.4502163
 -18.0647278 -24.5655270 -18.3707867   5.1142774   3.9091306  14.6865273
   5.8704109   4.5488911  14.5676851   4.4201226   4.4488602  14.2717571
 -27.9258595  24.4059200  23.6750832 -28.1395149  25.1635990  24.2441864
 -28.0059566  24.8926373  22.7664795  30.9824924 -28.7734756  18.7040806
  30.6091900 -28.8725166  19.6481514  30.9884911 -27.7784615  18.7369766
 -23.8928108  32.7627068  18.2076569 -23.9747334  33.3808327  18.9918804
 -22.9755020  32.8827705  17.9320736  15.5855513 -25.9000530 -21.3939686
  16.1254234 -25.9144135 -22.1983242  15.2482481 -26.7995682 -21.4074974
 -11.3940592  33.9814911   7.8488579 -11.4389668  34.5520897   7.0911517
 -11.8686934  34.3684196   8.5705490  17.1997986  28.3395691  14.3826799
  16.5991688  27.9057217  13.7272778  17.9323368  27.5889416  14.3131142
 -27.1853600 -28.8406887 -22.4408493 -27.1830769 -28.1376266 -21.7940903
 -27.8778687 -28.4984684 -23.0560417   8.6776295 -18.4474888 -37.5076408
   8.2618246 -17.5364342 -37.5067711   9.2265882 -18.3748035 -38.3295250
  25.4685593  -6.0784307  13.4731684  26.1005363  -5.4680834  13.8945198
  25.1086159  -5.5486073  12.7554159  16.9122562  43.9744797 -17.5664387
  16.7114620  43.5889168 -18.4319038  17.5296040  43.2300720 -17.2395325
  25.6100197 -35.8545227  -1.3987831  26.3076515 -35.6457825  -0.7385566
  24.7971077 -35.5014877  -0.9728262  41.8630028  31.9533367 -16.8040581
  41.0254555  31.4758472 -16.6111660  41.6672707  32.8044128 -16.3287430
   7.4123302 -32.7740288  22.4704037   7.3523169 -33.7416687  22.4756184
   8.3079863 -32.5598640  22.6697178  14.7471571 -10.8662233  23.5477295
  14.6860285 -11.6999054  22.9539680  15.4815063 -11.1418037  24.1392021
   1.8024770  11.1463556  19.2296543   2.6946979  11.4960909  18.9617367
   2.0088689  10.3917456  19.7408752  14.7765064   4.1253352  -0.6226028
  13.9255886   3.8177409  -0.8880578  15.3204346   3.9193351  -1.4031466
  -6.9615693   9.7752428 -18.0633335  -6.3685770   9.1867332 -17.6389618
  -7.6727161   9.1567926 -18.3472443 -33.9680328   7.2221689  -6.4242692
 -33.4392090   7.9939737  -6.8197937 -34.5214806   7.0439906  -7.1483340
   0.9101358   0.9541638  50.4546585   0.8304961   1.8398501  50.8168106
   0.4356197   0.3418040  51.0183258   1.7090495  29.8780270 -27.4992046
   1.2097541  28.9727135 -27.7513905   2.0699503  29.5573502 -26.7064514
 -32.0145302  24.7521095 -26.6283951 -32.6796799  24.5471630 -25.8801517
 -32.2452240  24.0376434 -27.2314644 -10.1011248  -5.2040610  -5.3106933
 -10.9946613  -5.0096207  -4.9658637  -9.6550722  -5.3512959  -4.4296942
   7.0295281  43.4983711 -23.3474159   6.7849755  43.8748398 -22.4518700
   7.7794547  42.9335022 -23.0042477   3.9481528   2.7280757  -2.3582931
   3.1724327   3.3444018  -2.5385807   4.1394057   2.9410231  -1.4526668
  33.0828667  24.2873478 -22.7434692  32.8210945  24.8909931 -22.0157681
  33.9015656  23.8519592 -22.3419018   3.8470192 -41.8017731 -13.4492874
   3.3252416 -41.1223259 -12.9824181   4.6817632 -41.4151268 -13.2815456
  36.2456284 -22.5824623 -22.0348377  37.0065994 -22.1859245 -21.5854187
  36.3935738 -22.2256470 -22.9256077  -8.3667078 -28.4325619  29.3071079
  -9.1288357 -27.8791866  29.6338158  -8.7228289 -29.3039818  29.5358276
  15.8250437 -18.1618404   4.8302455  15.8230553 -17.9164639   5.7595663
  15.0032969 -17.8205013   4.5267587  23.2939739  -7.3354697 -48.3758850
  22.5517044  -6.6856089 -48.1338120  23.1908340  -7.9919720 -47.6505203
   5.1590309  20.5696144  -3.7573946   4.3326483  20.2273064  -3.3252325
   5.5901885  21.0651550  -3.0996394  15.8472214 -22.1944637   9.0540361
  16.6240520 -21.6631222   9.0959721  16.0422516 -22.8464298   8.3523588
 -24.3821278 -38.9196968  14.1782284 -23.4633636 -38.7950439  13.9322186
 -24.8465824 -38.8429832  13.3395119 -27.2403469  13.5760441  28.8041725
 -27.4169331  12.6679163  29.1220818 -26.3894005  13.7716923  29.3116837
 -13.5332460 -47.6085739 -10.3662653 -14.0981569 -47.2109222  -9.6037521
 -13.3545094 -46.8584366 -10.8876419  -9.4422283 -27.4634190  17.7488461
 -10.0181894 -26.9118576  18.3665276  -8.7401381 -27.7076550  18.3971062
  12.6272449 -11.0150423 -42.5193901  12.6605721 -10.4440413 -41.7556648
  12.7579775 -10.4091063 -43.2818565  13.8260088  14.8086424  35.3355675
  13.1199656  14.6045475  34.6249542  13.3787308  15.5797920  35.7051582
  -2.7638929   5.8034043   7.3699493  -2.9472651   5.0062408   7.9211950
  -3.4488533   5.6775627   6.6966014  21.4227123   0.3540183  37.3476982
  21.3550034   0.4891405  38.3090935  21.4379139  -0.5799195  37.2201118
  31.7663689  34.2719955   7.9756413  31.0681076  34.7095833   7.4531384
  32.5314178  34.3894386   7.3840852 -14.2870502  -7.1886048  22.4311943
 -14.2116022  -8.1382818  22.5036888 -14.3127203  -7.0811586  21.4371281
  31.8139458 -26.1730957  12.2360001  32.0803871 -27.1326885  12.1120424
  31.8586464 -25.8470650  11.3204355 -21.2322502 -17.4899502  -6.5730724
 -20.4769554 -18.0521221  -6.8285284 -21.8986740 -18.1538563  -6.3035293
  -8.5564194   0.5384578  25.4490662  -9.4421768   0.8397245  25.6855145
  -8.3000889   0.1190304  26.2995300 -10.1160221 -10.7510338 -35.6329727
 -10.6105051  -9.9488430 -35.2105904 -10.0155745 -10.3964043 -36.5499992
  25.1130009   3.9190714  19.1231804  25.5905113   4.6068835  19.6441326
  25.8250751   3.5200601  18.6421070  17.2225723 -28.0552731  13.8473158
  16.4264030 -28.6299076  13.6632833  16.8810997 -27.1958733  13.7702551
  21.5683231 -20.5570278 -26.7959766  22.1102982 -21.2872925 -26.6714153
  21.3804035 -20.4777031 -27.7431793  -6.1649332  20.7620678  39.1662750
  -6.3759131  20.5294514  38.2288704  -5.9919076  19.8829975  39.5539474
 -27.4043217 -27.0215473   2.2347379 -27.7817364 -26.8494701   1.3549330
 -28.2121410 -26.7818642   2.7576871  -3.6034679  28.9321671  21.9187794
  -2.6759377  29.1560001  22.0946407  -3.9335999  29.8273487  21.7248096
 -26.2507133  24.6384163   7.7020326 -26.7621670  25.2612190   7.1349950
 -26.9511147  24.0448418   7.9760365  -0.2625235  -6.7955179  41.0785217
  -0.6547573  -6.0721684  41.6104698   0.2689309  -7.2756667  41.7133255
 -11.4815111  -9.3500547 -29.7331619 -11.5531502 -10.2533360 -29.2755928
 -12.2242947  -8.8593216 -29.3503990   1.8732623   9.2644968 -20.1737862
   2.6185451   8.7338610 -19.7699852   2.3843777   9.7455778 -20.8746243
 -11.8716574   5.2730198   8.2988501 -12.5981550   5.4857011   7.6263952
 -12.5056934   5.0293617   8.9965639  -9.9368010  10.5471630 -48.3715591
 -10.4322758  10.5515976 -47.5179062  -9.0624027  10.2937937 -48.0527802
  33.7217865  21.0833721   3.6165502  33.1246758  20.2642117   3.6799002
  33.5416985  21.3480282   2.6932919  20.4750862  42.8570976  11.7310839
  20.3684940  42.3106079  10.8966227  19.8052444  43.5161591  11.5720615
  -4.1537247 -31.4083729  -9.6498642  -5.1187801 -31.3157158  -9.9652252
  -4.2925920 -31.9059029  -8.8316565   0.0462075  46.5206413   7.3963265
  -0.9076359  46.2841721   7.4331388   0.4381329  45.6076851   7.2533007
  -5.5393457  -0.1241874   2.2757232  -6.3722911   0.3360163   2.4109633
  -5.1545463  -0.1289062   3.1589131 -12.9399328  -8.2516432 -13.1895952
 -12.5090122  -7.6051354 -12.5369406 -12.3810062  -8.0538464 -14.0174561
  35.6118164 -21.8852348   4.0726805  34.8001595 -22.0327454   3.5237799
  35.6101913 -22.8426876   4.4348173   3.0475166  47.1495628  10.0652733
   2.0945489  47.2907867  10.3479424   2.9613903  46.3005409   9.5605459
  44.0348358 -30.0264912  -9.3811846  44.6050568 -30.7088413  -8.9246950
  44.5468140 -29.1952114  -9.2625551   2.4510970  -7.6986446 -26.4329605
   1.7162468  -8.3289652 -26.6024799   3.0685453  -7.8843532 -27.1547184
 -23.1279869  32.8396034 -21.1324825 -23.3048801  32.3223610 -21.9030304
 -22.1323776  32.7212296 -21.0143280  17.6758766 -33.4713058  18.8867550
  17.4218884 -32.5834885  18.7603664  17.1958656 -33.7481079  19.6914654
  24.9986343  30.6930218   4.8446693  25.8865852  31.0782413   5.0850005
  24.4097939  31.0616817   5.5685258   4.4730973  39.9089584  -9.5662909
   5.2860184  40.2533417  -9.1113434   4.8300524  40.0744972 -10.4727097
  21.5072346 -25.4997807  38.8761635  21.7034111 -24.6314716  39.3483467
  20.6166706 -25.6581459  39.2271729 -36.5048447  -5.1146836  22.8473129
 -36.3826180  -6.0246325  22.7127228 -37.3023720  -5.0765023  23.4057121
  10.4892817 -17.0346279  -5.6315880  10.4468651 -17.0597439  -4.6361227
   9.6138783 -16.6594620  -5.7705884   6.9597516  36.0590553 -20.4883060
   6.7958336  35.2738991 -21.0788517   6.0740709  36.2327309 -20.1717701
  11.8828812  14.3881578  -2.3522763  10.9535389  13.9685564  -2.3516793
  12.1800280  13.9026852  -1.5523100  14.8019705 -25.2217140 -36.4333305
  14.4037714 -25.8640060 -35.7677193  13.9891033 -25.0352745 -36.9437561
 -32.3708687   9.7374802 -10.2570820 -31.7876549   8.9758987 -10.0276623
 -32.2711792   9.7653494 -11.2434025  25.1743355  -6.7669635  -3.3526022
  25.2141762  -6.6487846  -2.3994608  25.1934872  -7.7325606  -3.4279611
   9.8152609  -4.6293731  51.8116875  10.1590710  -3.9474053  51.1794739
   9.1317444  -4.0806980  52.2906609  14.8741465 -17.2054882  26.1164722
  14.1657171 -16.5934753  25.9072075  15.0123281 -16.9354591  27.0661888
  31.1304989  24.2709293   4.3071728  31.9648685  24.6689301   3.8858745
  30.5947342  25.0931320   4.0336728  23.5714455 -14.0103197  -9.9224663
  23.1323719 -14.8061218 -10.2318459  24.0125713 -13.7424383 -10.7461052
  14.3136883   1.4381018 -29.0549831  14.2354345   2.3380597 -29.5656452
  15.1799803   1.5805894 -28.7376308  -8.6813688  11.7003040  39.8563728
  -8.7658434  12.3209114  40.6207733  -9.5984583  11.8368320  39.5019226
 -17.7960796  17.9471035 -44.8004913 -17.3711128  18.5102158 -44.1443405
 -18.1430054  17.2073154 -44.2224655  -0.0267281 -17.6792240 -24.0400276
  -0.7016234 -17.4661980 -24.7583580   0.0732258 -18.6017303 -24.1371422
 -43.6590996  -3.9914272  -5.3360925 -43.4938011  -3.9775839  -6.2880211
 -43.7085457  -3.0025952  -5.1778669 -35.6176224  30.1856346 -12.7625399
 -34.8925934  30.5159130 -12.2175951 -35.3840752  29.2279968 -12.8736086
  39.1811028  10.7333097 -26.8382683  39.6104927  10.9829149 -26.0113964
  39.7647324   9.9539919 -27.0300674 -15.0906763 -14.4723511 -38.8528175
 -15.8570490 -13.8020687 -38.7689552 -14.3694372 -13.8756266 -38.5393143
  -0.4944278  27.2119465  -1.7927507  -0.4575781  28.2160683  -1.8279307
  -0.3120329  27.1985283  -0.8251483  20.7954865  -6.9496808 -12.5461502
  20.0013943  -7.5687485 -12.6760988  20.8454399  -6.7209878 -13.5342693
  27.1878967  -8.7463913 -21.3743820  27.7865639  -8.8837528 -22.1208611
  27.7857838  -8.7316017 -20.6224937  27.0102444  -0.9513961 -24.4089088
  26.3410835  -1.5579253 -24.8229733  27.2607822  -0.4211404 -25.2128315
  -7.4209385 -26.9743614 -30.6456432  -6.6482358 -26.3496189 -30.5999794
  -7.5718694 -27.0460587 -29.6638088   8.6289320  14.2678070  30.9305305
   8.0083628  14.0808563  30.2260456   9.2962971  14.8029604  30.5002785
 -43.9149284 -27.3686962   9.6195297 -44.0419121 -28.3106918   9.6324539
 -44.6306114 -26.9829922  10.1390076 -38.8674774 -16.0036850  24.1011028
 -39.1918488 -15.1148701  23.9623489 -38.8070564 -16.3941174  23.2358265
 -41.7123260  15.3651304  22.3965855 -41.8119812  16.1872082  21.8332500
 -42.0302773  14.6800585  21.7283478 -12.0519533  -1.5075856  -3.2133410
 -11.9959421  -2.2056262  -2.4496295 -13.0064001  -1.2492888  -3.0106194
  18.7384033  -4.4774570 -32.3398895  18.7463417  -5.3699903 -32.7601013
  19.0284386  -3.9242196 -33.0857162 -22.0118484  22.4588375  40.0756531
 -22.4793682  23.2985287  40.1787376 -22.5334759  22.0085640  39.4257317
 -17.4876137 -41.5118523   4.8513761 -18.4429150 -41.6878624   5.1147318
 -17.3913021 -40.6592484   5.3421397  -1.7766271 -32.7120209  12.2943811
  -1.7863477 -31.9652214  12.9251928  -1.4084692 -32.2269516  11.4618425
 -13.0851183 -15.2047338 -12.7663965 -13.4858541 -16.0637341 -12.5991411
 -13.7838421 -14.7105293 -13.1901712 -18.5815907 -26.8981686 -11.7200270
 -19.2152557 -26.1790237 -11.7043028 -17.8549595 -26.3834572 -11.1409922
   2.5440931   5.6714592  26.3445320   3.4292798   5.9175816  26.0315361
   1.9474525   6.4545145  26.0396671 -33.4693718   4.5462065  -5.0941753
 -34.0480194   4.3188086  -5.8026886 -33.3850975   5.5643468  -5.2248230
   2.8603120  41.6345901 -14.9019556   1.8835863  41.7413750 -15.0013046
   3.1016092  41.5180740 -15.8319197 -17.1098728   5.5127788 -29.3921375
 -16.2595425   5.0943794 -29.0805435 -17.0698032   5.1765089 -30.3398972
 -23.0662689 -38.1911812   4.9253783 -23.8195190 -37.6074677   5.1495423
 -22.8892384 -38.0222931   4.0259323 -38.9348106  -6.3435559  21.5715828
 -39.3853531  -6.9540143  20.9902477 -39.5740967  -5.6280556  21.7027683
 -29.0738316  -3.0160449 -10.0541553 -29.9251709  -2.6685219 -10.2911577
 -29.1425114  -3.9730918 -10.1247511 -22.4307442  10.5545778 -41.5403557
 -21.6703148  11.2180414 -41.5396843 -23.0070953  11.0124178 -42.1864357
  37.3420639   6.3548875   5.9379330  37.1573067   6.1483345   4.9402404
  37.8049507   7.1895757   5.8386207 -18.2125187 -40.0327110  -5.7587214
 -18.9209690 -39.4158363  -5.9483228 -17.6050587 -39.3660240  -5.3154917
 -32.4299011 -15.1622553  31.6253071 -32.4349289 -16.0985489  31.1855240
 -31.8210068 -14.7375345  30.9338722 -40.5973358 -30.1719913  11.7861471
 -40.6464996 -29.3701286  11.1811666 -41.5046921 -30.5842209  11.5791922
 -10.1444921  27.1283035   9.8995428 -10.2369175  27.2386131   8.9585772
  -9.2469778  27.5075531  10.0064030 -16.9546223  37.8757973  15.1665945
 -17.6098309  37.9714508  14.4134245 -17.5764828  37.4643936  15.8108664
 -28.7441521  -1.6823896 -28.4965401 -29.3456993  -0.9559329 -28.7934475
 -28.6042347  -1.4815965 -27.5458221  37.9685631   3.6356018   6.7321625
  38.0971222   4.5863366   6.6374311  36.9839096   3.6045830   6.7123189
 -27.2298279   7.7702107   3.6428328 -26.4210033   7.2368865   3.7296731
 -26.8832169   8.6447563   3.6430619   8.1655178  -1.7060800  27.6145687
   8.5601606  -2.1169245  28.3684673   7.3329797  -1.3833982  28.0006180
  -7.7341118 -12.1838217  40.1862335  -8.6173630 -12.2872496  39.8068466
  -7.5509357 -11.3050938  39.8958359  38.6985397  15.5863333  18.9175644
  38.6773987  15.8981810  18.0117950  37.9540787  14.9528103  18.9291496
  31.9138508  24.9043770  15.1075583  31.2430191  25.1209812  14.4150076
  32.6878319  24.7853889  14.5246668  37.3695374 -17.8125286  10.6376085
  38.2458038 -17.8066120  10.2515507  37.0914230 -16.8750191  10.4872341
  -2.8652792  -3.7360985  48.0844765  -3.5863855  -3.6754017  47.4340553
  -3.2868707  -4.3652329  48.7244186  -1.2539409  -3.4201789  37.9035072
  -1.2644057  -4.1693687  37.2601624  -2.1289330  -3.4710982  38.2795906
  12.1059256  16.3964672   9.6291981  13.0272522  16.4305897   9.4874439
  11.8681374  17.3140373   9.9362860  35.2774162  19.3871841  16.1739464
  36.2414551  19.5783005  16.2706871  35.0777397  20.0489540  15.4612226
 -12.5715427   1.7551628  -4.2695403 -11.6240396   1.6018269  -4.0301685
 -13.0256367   1.1845518  -3.5931642 -38.9903069 -32.6914330 -17.1687546
 -38.1357117 -32.4160004 -17.5306721 -39.0784264 -31.9307861 -16.4914455
  25.3298092   1.0733005 -20.0843124  24.6026459   0.5871206 -19.6686783
  25.1276398   1.9668663 -19.8425274 -11.3435631  19.4832268  18.2829323
 -12.2563000  19.2327385  18.3317661 -10.8742008  18.6282902  18.3892536
  37.1227875  20.7724228 -14.9427052  37.3906059  21.3237572 -15.7010002
  37.0347404  21.5298653 -14.2849035 -34.2282791  -1.7909701 -14.8331318
 -35.0063210  -2.1751301 -14.2625189 -33.6717224  -2.5883899 -14.7809095
 -20.8854809  26.6250019 -38.5151024 -21.1615276  25.7948895 -38.0590973
 -20.9634571  26.3416805 -39.4195290  34.1876869  -1.9830087  20.0235939
  33.2597618  -1.9394537  19.7185421  34.1054497  -1.3482349  20.8048496
 -13.1510172 -19.8910313 -27.8502293 -12.5470476 -19.4721375 -28.4646740
 -13.1201105 -19.2463818 -27.0654583  -5.9826484 -27.9413910  23.2265396
  -5.3894744 -28.5217552  23.7675743  -5.6501679 -28.2391167  22.3477669
 -23.3095837  -2.3130164  38.2726860 -22.3119488  -2.4325666  38.1647568
 -23.4297009  -1.4584585  37.8378639  -7.3021665 -23.2425518  36.4716835
  -7.2476287 -23.9441624  35.7868690  -8.2927494 -23.0986347  36.4265633
  33.4262123  -3.6818533  25.2300053  33.8881836  -4.2652535  24.5424938
  33.4767227  -2.8305442  24.7244110  19.2287712 -39.4567299  -1.5568446
  18.8494205 -38.5724907  -1.3269514  19.5753670 -39.2140198  -2.4628186
  16.5676022  -5.9976659  18.3390789  17.2661400  -5.4144917  18.1277237
  17.1228886  -6.8063960  18.3913937  -9.4501562  -9.3049049  17.6217194
  -9.5409355  -8.9286966  18.5848732  -8.9605656 -10.1128807  17.8508625
 -36.1809769 -15.3000183  18.1256847 -35.7845039 -14.6112537  17.5833340
 -35.8258514 -15.0085802  19.0349674 -26.9697571  15.1691732   3.6798084
 -26.2953815  15.5499487   3.0216095 -27.4921131  14.6170492   3.0338502
  -5.3587971  -6.8273997  25.1729202  -5.5459838  -5.8420029  24.9714203
  -5.5828099  -6.8334827  26.1131268   2.6850810  25.8967876 -24.1713009
   3.1258318  25.7888908 -23.2662621   3.5281141  26.0502510 -24.6809788
 -28.2272873  23.6408291  20.7069054 -28.8464622  24.3798809  20.7466831
 -27.3764973  24.0063629  20.9782848  22.1433163 -38.6389923  12.9023066
  23.1376991 -38.6869164  12.8283653  21.9626579 -39.5634422  13.2346153
  18.0859966  22.5289116 -18.9934120  18.8783836  23.0122375 -19.1882343
  17.4110546  23.1281128 -19.4438496 -22.9575710   1.8292935 -32.5540695
 -22.2528477   2.5862825 -32.4514771 -22.4559631   1.1197212 -32.0549507
   3.4937108  40.2061386  28.5411644   4.4139767  40.6408386  28.5164280
   3.3989351  39.9841156  27.5616779   1.1098636 -32.1989479 -16.3828125
   1.2568053 -31.2163372 -16.1539040   0.2728010 -32.0276566 -16.9294853
  -9.2411737  24.3201523 -36.6499672  -8.4260883  24.7432919 -36.2522964
  -9.8824377  24.5540237 -35.9797440  36.5092812 -27.7357883   4.3957148
  36.7128067 -28.3598156   3.6865699  36.1964493 -26.9859753   3.8835404
 -20.6695023  35.3933258 -19.3982277 -19.9540482  34.9554863 -18.8671284
 -21.4480076  34.8424568 -19.0323238  32.8588181 -29.2633381  -6.1830821
  33.0119019 -28.2893105  -6.2329583  33.2673912 -29.6063919  -6.9996305
 -37.6954689  -0.8853088  29.3226414 -37.0697861  -1.5361778  28.8976822
 -36.9931259  -0.2485180  29.6147499  37.9106140 -24.6427746  19.4409065
  38.2290459 -23.7640057  19.2932301  37.4184837 -24.7880344  18.6044769
   4.8538480  27.9420357  -6.6939273   4.6855288  28.9656811  -6.6390977
   4.2153878  27.7321835  -7.4078102  12.9187307   3.1351173 -15.5691710
  12.5967674   3.9115176 -15.0330744  13.8282681   3.4416950 -15.7739820
  -9.6515903 -28.2078457 -28.8520622  -9.1226110 -27.4947147 -28.4101238
  -9.1917830 -28.3901119 -29.6410522 -28.5748215  22.4145775  11.9556551
 -28.7230377  23.1776886  11.3673038 -27.7549038  22.7221622  12.3877468
  -4.4023805  10.0844488 -34.6661491  -4.5783319   9.6148520 -35.5226212
  -5.0073447  10.8555574 -34.7750473 -29.7698288  30.1808853 -29.0961971
 -29.2184296  31.0244541 -29.1154633 -30.5065689  30.5875130 -29.6372433
 -10.8170872  -5.5081482 -46.5555534 -10.1213226  -5.4903083 -47.2259102
 -11.3213739  -4.6711340 -46.8333244 -17.1750011  24.9755554  33.6165619
 -17.8457108  25.4363899  33.1051369 -16.7092991  25.7013779  34.0353088
 -37.3296890 -23.1502991 -18.3442764 -36.7231789 -23.6284161 -17.7279739
 -36.7178955 -23.0598583 -19.1494217 -13.8121996  -3.5292840 -44.2593460
 -14.3629007  -4.3127418 -44.5659904 -14.5026493  -2.8476882 -44.2682800
 -16.1090565 -11.5748177 -13.2204504 -16.2116127 -12.5140190 -12.9074154
 -15.1351967 -11.4739542 -13.2393427  44.5522537 -11.2621269   3.8057404
  43.7246742 -11.7633018   4.0715442  44.1447334 -10.4490309   3.4691746
   4.3591585 -22.9095516  11.7170591   4.8057494 -23.2337151  12.5291939
   4.4509621 -23.5339222  10.9883432 -39.0622597  19.8842793 -14.2532082
 -39.5994987  19.6370411 -14.9809351 -39.6644478  20.4904861 -13.7589130
   9.5366344   5.0040507  -1.9610845   9.1758795   4.9544401  -2.8582187
   8.6950874   5.0652575  -1.4574223  -3.4318047  -0.5353804 -51.3979187
  -3.0939796  -1.0671532 -52.1513557  -3.0189974   0.3372049 -51.6134148
   8.4754257  11.0423164  31.5329018   7.9548135  10.5852556  32.2277107
   8.4288158  10.3687468  30.8507175 -28.8788910 -40.6074333  12.5893011
 -28.8502502 -39.8136482  13.1795645 -29.2399502 -40.1259270  11.7775993
  -8.9867611  -7.9225307  -8.5754070  -9.6756372  -7.2837315  -8.2915649
  -9.0136290  -7.7202606  -9.5625782   0.2819136  22.4571381   2.3312330
  -0.6166927  22.9149323   2.2113705   0.9578069  23.1174068   2.0421159
 -15.5533400  29.7158279 -20.5562096 -16.5167694  29.9499912 -20.5063667
 -15.2201223  30.3096142 -21.3470325 -31.6021500 -18.5934792 -13.7748814
 -31.9553699 -18.0989761 -13.0050831 -31.3295784 -17.8064137 -14.3091621
 -34.3692513  15.7421951 -28.2386131 -35.0494156  15.5275993 -27.5315666
 -34.5735779  14.9667034 -28.7973175  12.3216219 -40.3736839 -10.3638477
  11.6691513 -41.1216278 -10.4850149  12.9254951 -40.5769043 -11.1138105
 -39.5370522  25.2644100  14.4878817 -40.4868050  24.9982262  14.5032272
 -39.3041534  24.8034706  15.3001204 -22.4116764  -1.7105097  13.9352360
 -23.2855606  -1.2722697  13.7921476 -22.6986771  -2.6669519  13.9300776
 -19.0287209  13.1305895  27.0646172 -19.2737007  14.0437222  27.2786560
 -19.2821350  13.0988398  26.1352158 -33.7390900 -18.2339821  -6.5476274
 -34.1657372 -19.1068306  -6.2978048 -33.1703072 -18.4921932  -7.3172283
  16.4323921  -6.0582328  32.8552322  16.2703648  -5.1155343  32.8572311
  15.9811449  -6.4250479  32.0746651 -13.7610359  14.5586414  31.9262428
 -13.1540613  15.3719606  31.7611275 -13.7887554  14.2142315  31.0047874
 -11.7442551  42.0473061   7.8670025 -11.3193245  41.2179718   8.0995579
 -11.0839062  42.6309395   8.3833494 -13.4073572  30.3004608 -31.6325588
 -14.3712206  30.3796368 -31.5808048 -13.2865095  30.4751110 -32.5633774
   6.5879369 -24.8223114 -10.4141912   6.3680296 -24.9671364 -11.3742542
   7.2775331 -25.5143375 -10.3201847 -19.4483376 -44.4555893  10.4832125
 -19.4227734 -43.5276108  10.7198400 -19.8161240 -44.3631897   9.5614491
  21.1813755 -14.4953518 -30.6984234  20.6918087 -14.8874893 -31.4159584
  22.0295582 -15.0017481 -30.6510773  28.2254124  41.2764206   1.7812835
  28.7986488  40.5059853   1.9047207  28.4199677  41.8229561   2.5939581
  13.5074129  26.4447041 -12.1247959  12.7363882  27.0917797 -12.1692524
  14.1984682  27.0289078 -12.5858278 -41.3978424 -11.7251835  -4.3439946
 -41.0853310 -11.6408501  -3.3995748 -41.8840675 -10.9298630  -4.4975581
  -7.0473700  15.5214710   2.7190630  -7.5667257  14.6862545   2.6535804
  -6.4811110  15.4940319   1.8787479  35.0286369 -29.2118073  24.3302822
  35.5719757 -28.6652184  23.7107811  35.0985222 -28.6448059  25.1412849
   9.1752081   2.6192665  43.7936974   9.1892748   2.3348637  44.7106361
   9.4615316   3.5353556  43.8453789  39.2528152  -1.9265647  -6.2820582
  39.5385437  -1.7484381  -7.2115407  39.8432503  -1.2981951  -5.7798276
 -36.2419968  33.6023064 -14.4225140 -35.9810791  33.6844368 -13.4326725
 -36.8859367  34.3037910 -14.4610023  18.4983425   4.3605418 -22.3123913
  18.0644741   3.5203280 -22.5199184  18.7364750   4.1970391 -21.3710766
 -35.5386047  32.6212311  -3.5655515 -35.3443451  32.9619141  -4.4994764
 -36.4982338  32.7724190  -3.5245633 -19.4072800 -42.1845894 -18.4945145
 -20.1788731 -42.2863235 -19.1244030 -19.2510262 -41.1989288 -18.5215015
  20.6110783  -0.3070039  17.8607922  21.5515366  -0.6009734  17.6759968
  20.1190147  -1.1006607  17.7187462  17.7167797   4.1108351  30.6212559
  18.3697567   4.8463836  30.5927544  17.3791122   4.2247019  29.7162056
 -12.4627028 -25.1411915 -26.5652294 -11.6055536 -25.0639305 -27.0643539
 -13.0508537 -24.7871323 -27.3120003 -17.0056992 -16.7175369  12.5074329
 -17.4851055 -17.3634186  11.9136238 -17.6716328 -16.6999264  13.2213669
  39.9172325 -10.2412863 -17.1047325  39.9926147  -9.3613005 -17.5442924
  39.7400780 -10.7155180 -17.9587898   6.2147660 -29.4564266 -37.2048950
   5.3704143 -29.6044140 -37.7389336   5.7492990 -29.1399021 -36.3536148
 -37.5616379  21.7112751  -1.4398315 -36.7981110  21.7451973  -0.8603677
 -38.2044754  21.1893444  -0.9260653 -12.5570288  27.2165012 -42.8828621
 -12.8723917  26.2394524 -42.8092918 -11.9045210  27.1119862 -43.5259247
  -2.3669679  16.5409088 -35.2032089  -3.1776626  16.1323376 -34.8039055
  -1.7887335  15.7951679 -35.3031273  23.2002125   4.7366843 -18.1539230
  23.6210365   3.9516377 -17.7402248  22.7175636   5.1293459 -17.4623260
  24.2802925  11.6865778  30.7368565  23.3238277  11.6416855  30.8909569
  24.3766899  10.7305040  30.3456287  18.3119431 -17.2881584 -29.3636532
  18.6394749 -16.9674129 -28.4594154  18.0802422 -16.3865681 -29.7364082
   8.8318357 -17.8424740 -34.8258400   9.6826420 -18.0922890 -34.4684029
   8.9747744 -17.9690456 -35.8435745 -37.2205086 -26.0839729 -20.9571133
 -37.2196541 -25.5936489 -21.7517567 -36.3113403 -25.8679142 -20.5952969
 -22.1480427 -41.7107582  -5.7703891 -21.6592026 -40.8611908  -5.9066548
 -22.2815418 -42.0313606  -6.6586399 -23.7724171  11.8870106 -11.9791536
 -23.0129547  12.1912966 -12.4649534 -24.4093113  11.7420769 -12.6282902
  10.8053894  23.3123608 -10.9532595   9.8289032  23.4525757 -10.8419390
  11.0304298  23.3367863  -9.9929371 -12.7412472 -34.7150230 -17.6154499
 -11.9056597 -34.7767754 -17.0234299 -13.4149723 -34.6404228 -16.9081497
   6.8233366  19.4382057 -26.5317154   6.1126990  20.0259285 -26.3211060
   7.1619782  19.7984772 -27.4071922 -17.7511120 -19.9184055  23.4772091
 -18.1116486 -19.8974838  24.4041748 -16.9582405 -20.4603004  23.6746178
 -10.4094439 -15.9083414  36.7788277 -11.3636389 -15.6390390  36.6662865
  -9.9296799 -15.6055498  35.9875259 -27.5312080 -12.6614857 -18.9215469
 -26.8592148 -12.1439857 -19.4240074 -28.2652988 -11.9886818 -18.8120441
  36.2565384 -20.4175987  20.5708561  36.9978371 -19.8846970  20.2326584
  35.6554337 -20.2128696  19.8065510  -2.7937379 -42.4519386   2.5545757
  -2.6113262 -43.2887726   2.1044350  -2.4355192 -42.6733780   3.4644539
  32.7157173 -12.0476894  12.3208189  31.8640728 -12.0012045  12.8209543
  32.8618126 -12.9436016  12.4592371 -15.0592299  -5.6976318   3.5300560
 -14.2581377  -5.1908083   3.6675234 -14.7021790  -6.5406733   3.2403893
 -37.4556923   6.5248642  33.4307899 -37.3392296   7.0604944  32.6426697
 -36.6560211   6.6622338  33.8967819   1.3816098  12.1109171 -32.5400238
   1.4334093  11.1468096 -32.2964821   2.3020072  12.2547655 -32.7643967
   9.2715979 -25.1773834 -25.1163158  10.0078201 -25.7014675 -25.4417267
   9.6529465 -24.2987061 -24.9904499  18.7286091  31.4823437  20.8329601
  18.9436550  31.2507572  21.7653103  17.7982674  31.7721767  20.9130135
   6.4196534  22.1462555   6.7057295   5.4959860  22.1290703   6.3718686
   6.8754601  21.5328445   6.1611328   0.3269532  20.7115231 -12.4947271
   0.3075806  19.8068562 -12.1329679  -0.4921946  21.0621662 -12.0849915
  -5.2602768  23.6754990  -0.1333017  -5.1536183  23.9700356   0.8104888
  -6.1161103  23.2124958  -0.0692856 -29.3529816  33.6009216 -18.9529152
 -30.2495842  34.0019188 -18.8860836 -29.0079060  34.3444366 -19.5935688
 -14.7622786   9.7552376  -2.5407486 -14.3806152  10.1545372  -1.7022344
 -15.1549377   8.9303160  -2.1201725   3.6619048  -1.1172374 -48.8539619
   3.9390237  -1.0338289 -47.9341812   4.2500210  -0.4910200 -49.2708130
  -1.4680866   5.7039309   1.6150248  -1.4370223   5.4593730   0.6466623
  -1.4378108   4.7666368   1.9710988 -27.6417923   8.9919214  -9.5449753
 -28.2226315   8.6038408  -8.8111610 -27.1189728   8.1635914  -9.7172680
 -24.9311447   5.2113066 -45.6512375 -24.4814415   4.5944180 -45.0661964
 -25.1267815   5.9189091 -44.9797821 -21.3879662  -9.1064615 -31.6861458
 -21.7448940  -9.9391289 -31.9994297 -20.6458721  -9.0003424 -32.3618126
  31.2597485  27.4933167  -8.7381592  30.5288601  27.1018696  -9.1749182
  30.8594608  28.1211147  -8.0960665  23.3986111  15.1418419  10.7606735
  23.5074844  15.7380123  10.0104446  23.6737900  14.2608910  10.3865938
   7.8328528 -11.4274530 -20.9491043   8.8230267 -11.5181017 -21.1059341
   7.5327759 -10.9568691 -21.7153530  29.3249302 -14.3930521 -32.8108635
  29.0302486 -13.5013905 -33.0752144  29.0540447 -14.9701490 -33.5628624
 -24.7281780 -27.0999699 -15.1460619 -24.3866959 -26.1486759 -15.1277466
 -25.4386120 -26.9718456 -14.4707842  31.5543880 -23.3735542  -1.1867094
  32.2737732 -23.1121941  -0.5856746  31.9552670 -23.1263046  -2.0862818
 -41.3939247  19.6615734  -4.1575150 -41.6405716  19.9555130  -5.0845141
 -41.5827332  18.6734715  -4.2638497  -6.2346272 -22.3760204  10.9541283
  -5.2899737 -22.4569626  11.2074156  -6.6075268 -23.0134659  11.5974751
  15.7455215 -28.8087959 -14.9588957  15.4522314 -27.8833580 -15.1389904
  16.4921093 -28.8728313 -15.5967426 -20.4577332  14.6257496 -41.7935181
 -20.5636806  14.9998684 -40.8973427 -20.3531036  13.6968765 -41.6016235
 -16.0118732  25.4947414  -6.2819409 -16.9116306  25.3207664  -6.5442696
 -15.8469925  24.7975559  -5.6055737 -17.7652531  16.0203686  25.1876984
 -17.6116638  17.0080891  25.0470123 -18.4106636  15.9855118  25.8256226
  34.2595215  19.7563572 -16.2313309  33.8765411  18.8854980 -15.9438334
  35.2182617  19.5926228 -15.9589128 -22.5573483  12.6687717  32.1816101
 -23.4481297  13.0436201  32.0989265 -22.6228275  12.0117350  31.4280109
 -23.6304417   7.8910375 -26.2947845 -22.6773510   7.6649809 -26.0750294
 -23.4846458   8.2830591 -27.1617184  43.3793411  17.3038788 -17.6322365
  44.1255341  16.8887424 -18.0959187  42.6134415  16.9439335 -18.1335678
  41.2441788 -29.7883015   7.4152298  40.3511581 -29.6011238   7.8704128
  41.6707191 -28.9163265   7.6997747 -18.9070053  10.4531097 -45.2103691
 -18.8501701  10.2589321 -44.2462387 -17.9435902  10.5786438 -45.4095039
 -16.1069221   1.4761972 -16.9671612 -17.0186234   1.6289010 -17.3291206
 -16.2451649   0.5310043 -16.6520424 -32.6049995 -29.7017155 -23.8767624
 -33.3253136 -29.3807182 -23.2757549 -31.9406872 -29.8313103 -23.1464024
 -23.3080215 -26.6291790 -19.8733597 -22.8961563 -27.4863529 -19.6629333
 -22.9663467 -26.1152725 -19.0612221 -40.6339645 -32.3155861   7.4474707
 -39.7012482 -32.5242081   7.6187987 -40.5779228 -32.2940636   6.4345818
  27.6409836   7.5987258 -28.3336735  28.4283085   8.1308870 -28.6197433
  27.6423111   6.9046021 -28.9692974  -3.4088831 -27.7642765 -17.3791656
  -4.1634126 -27.5017014 -17.9285030  -3.3816707 -26.9918766 -16.7809391
  35.0982780 -19.4613628  14.7842073  35.4288216 -20.3562336  14.8464088
  35.8500633 -19.0688229  14.2474451  31.5138149 -28.8170547 -29.7592335
  31.9891376 -28.5715199 -28.9555264  30.5863838 -28.7731419 -29.5025539
  30.6592388  15.1117468   1.8358312  29.9008904  14.5166740   1.7108871
  30.2389889  15.9363918   1.5696269  23.2677612  41.5700188   3.8229587
  23.0923729  41.0104294   4.5714092  24.1224136  41.9807892   4.0603971
  21.1954308 -15.1477642  -7.0265784  21.8036041 -14.4300804  -7.2403498
  20.6115170 -14.7693520  -6.3343887 -16.9562740 -45.7641258  16.1311970
 -16.4259892 -46.4228554  15.7168465 -16.9324932 -46.1108284  17.0701141
   6.8014402 -23.9502087 -16.9113922   6.3823800 -24.7833710 -17.1187305
   6.2280235 -23.3405991 -17.4615231  -7.7407808  38.3223763  34.7397156
  -7.8654246  38.0114746  33.8078384  -7.9560490  39.2619896  34.6168327
  21.0166893 -32.5363007  30.6646557  20.9070110 -32.6313477  31.5528622
  21.2901974 -33.4145012  30.2889500 -12.6779099 -27.2185364 -28.8869991
 -13.1117582 -27.6154041 -29.6527214 -11.7431564 -27.2464924 -29.1755257
  -9.6770878 -21.7472191   0.9938465  -8.7075510 -21.5659962   1.0949317
  -9.9656897 -20.8942585   0.6487469 -42.6682053 -15.4878464   5.8733034
 -42.6048508 -16.4794464   5.7302880 -42.6217613 -15.4900942   6.8453102
 -39.2830238   6.0146155 -12.4167957 -39.5946541   5.1876335 -12.0172873
 -38.3356018   5.9049983 -12.4378786 -26.4350567  18.5137901 -38.4152412
 -25.4939213  18.4317589 -38.6516609 -26.8776989  17.9560032 -39.0721855
 -37.6466827 -22.6892834   7.3035550 -38.3989296 -22.1179752   7.2408733
 -37.8394203 -23.2197495   8.1281691  -2.1060033  22.1480122  12.5046778
  -2.0331933  22.6499119  13.2694817  -2.8690209  22.5716705  11.9990759
 -27.6694450 -29.0748940  -0.9932497 -28.0223923 -29.9230213  -0.6810530
 -28.2697392 -28.4088497  -0.5840944  10.6044493  23.0075645   9.4535761
  10.7614422  22.7959538  10.3984108  10.5370779  22.0974331   9.0563498
   6.9089613  32.7293663  29.2252941   6.8552203  31.8509407  29.5138378
   6.6830263  33.2286835  30.0700321 -27.9312534  16.0935326  19.8424530
 -28.6993504  16.5602627  19.4965229 -27.9182949  16.3733158  20.7226353
  36.1082420  29.4996986 -10.7509651  36.7847290  29.3852520 -10.0320568
  35.9204979  28.5925732 -11.0060339  -1.2410164 -46.3391838  23.6550026
  -0.6386482 -45.5475998  23.5079689  -2.0458596 -46.1086235  23.1559296
 -17.5111217  10.7958355  17.7083054 -16.9880352  10.9556541  18.4989967
 -16.9404430  11.2409010  17.0660152 -18.9253616  19.3943825  44.8255692
 -19.5318317  20.1875210  44.6273384 -18.1082363  19.8401909  44.6986694
 -42.4474068   0.1182092  -1.1081431 -43.1375351  -0.5722334  -1.1530340
 -41.9479485  -0.1366780  -0.3479144 -18.2703190 -31.8532906 -23.4813919
 -17.5289173 -31.1814518 -23.4179802 -18.7479572 -31.7270603 -22.6501446
  38.9891434  12.8176489  21.1248398  38.3289795  13.2982988  20.6036472
  38.8347702  11.9085064  20.7960854  21.4702759 -16.6998920  11.9905472
  20.7620201 -16.1276684  12.2235222  21.0733051 -17.3498096  11.3912506
  -2.1348720  15.9393969 -16.6661816  -2.8667724  15.4070864 -16.9851856
  -2.4569790  16.0268002 -15.7267990  11.2535715  28.5463009  10.9250097
  10.6388435  28.5543327  11.7252121  11.3291817  29.4595871  10.6973600
 -38.3636284 -22.4734936  23.8472176 -38.0848274 -22.9049015  23.0206299
 -38.9574699 -23.1412907  24.2440643 -41.0175705  25.9216404  -5.4515557
 -40.0830154  26.1916447  -5.2003736 -41.5114212  26.4452019  -4.7956767
  -0.8896778   6.4948187 -18.9940701  -1.4738439   5.7473497 -19.1399956
  -0.9887819   6.6314664 -18.0066471  11.5461788 -20.1638107 -13.0504389
  11.9377060 -21.0696735 -13.2115870  10.7244701 -20.2400608 -13.5992317
  11.3233528  -6.5545101   9.9693851  11.8833847  -6.7016730   9.1266155
  11.5719204  -5.6220503  10.0863667  42.0486679  -2.6536181  10.6355915
  42.6389732  -3.2655444  10.0043545  41.2741394  -2.6610308  10.0339575
   0.5573046  25.3073368  18.2604561   1.2297431  25.1485786  18.8895092
  -0.1469516  24.6509132  18.5002995   2.3897126  -8.2987480  20.7862587
   1.4248036  -8.0101681  20.8063049   2.3618839  -8.8280649  20.0063801
 -11.2827492  -6.5856547 -34.9515839 -10.6762075  -6.6658883 -35.7244492
 -11.9881563  -6.0073547 -35.3087158  -7.3089089 -27.5950890   9.6002541
  -7.8236289 -28.3847332   9.8771772  -7.9300427 -27.0993004   9.0958204
  33.2728081   1.8178995  -8.8640671  33.1921959   2.4137752  -8.0746565
  34.2028580   1.4419848  -8.7127829  44.3564186 -14.8830261  -9.8880329
  43.7830963 -15.6484032 -10.0827827  45.0098457 -15.3069229  -9.3411322
  17.1622696  -6.4271111 -44.7609596  17.3301792  -5.6478772 -44.1918945
  17.4889526  -7.1688819 -44.2420807  16.5465717  24.6342831 -19.6957970
  16.6349277  25.3482380 -20.3331833  16.2174377  25.1569576 -18.9201412
 -15.4740267  10.0425463   6.3367329 -16.0732708   9.9030609   5.6151071
 -14.9441462   9.2067280   6.3373995  14.9404554  46.6757507 -12.5508308
  15.6792793  46.3237495 -12.0810089  14.2420988  46.6620636 -11.8822088
  29.2625771 -17.6128349  27.7679100  28.4969540 -17.0428371  28.0312710
  28.8218346 -18.2296448  27.1624699   7.1330905   5.1235499 -27.1824036
   6.6668806   4.6074257 -27.9114571   6.3557930   5.4243836 -26.7172871
 -19.5678062 -39.8127174  14.8299522 -18.7768326 -39.6743584  14.3953829
 -19.3586731 -40.5316887  15.4508638  32.3457336  29.1060352   2.6272531
  32.3701744  29.3691044   3.5899515  33.0839806  29.6425056   2.2969470
 -10.7707014  -7.7897873  44.6608963 -11.3141289  -8.5847597  44.8057632
 -10.0406456  -8.1806164  44.1382523 -23.9061832  27.4372902  31.6664219
 -23.0313644  27.2687492  31.3402977 -24.0328159  28.3671169  31.4800377
  -0.3636928   3.4925811  14.2168617  -0.4111460   4.4279017  14.3422251
  -1.0545686   3.1509979  14.8304825  19.6831970  -7.3588614  28.7969742
  19.0062389  -6.6963277  28.5278378  19.2253246  -8.1976414  28.9165115
 -33.4778862 -35.3321495   4.9115934 -34.2921143 -35.5545959   4.4414935
 -33.8095016 -34.5936089   5.5146255  32.6800346   7.2439442   7.1283598
  31.7247906   7.4986563   7.3172841  32.6749992   7.3169212   6.1200337
 -29.4402676  31.1072960  16.8310299 -29.6938286  32.0855331  16.7958813
 -29.7067566  30.8803444  15.8818693 -38.7422333  24.2741280   6.0685601
 -38.7885780  25.1509743   6.4679508 -38.2566185  24.5018959   5.2716475
  -7.0754976  -6.4876180 -32.0365562  -6.6594539  -6.8320050 -32.8603630
  -6.7276812  -5.5760136 -31.8803978  -2.7070532 -21.0364208 -25.5196400
  -2.2501276 -20.2861767 -25.9226341  -2.4467351 -21.7614460 -26.0775986
  14.0603523  -0.1084525  11.2783794  14.3760777   0.7910053  11.5069847
  13.1411123  -0.0858965  11.6230011  32.0731010  31.8803844 -11.7751083
  32.7490959  31.5933399 -12.4431314  32.4883804  31.4792061 -10.9715929
 -16.4281502  14.6046572   5.7171025 -17.2552433  15.0474463   5.8189950
 -16.3657894  14.6189318   4.7556157 -30.2269211 -30.2923641 -22.3768101
 -29.8609734 -31.2529087 -22.3683128 -30.2281399 -30.1266613 -21.4377079
 -20.3601627  30.3433876  24.7774677 -20.4942112  30.0289154  23.8448925
 -19.5401649  30.8706245  24.6416130 -17.2231750 -13.0324984  15.0981607
 -16.2932968 -13.2281628  15.0452337 -17.2219524 -12.0418854  14.9740610
  20.7562714 -28.4024620 -14.1106100  20.7387562 -28.5939064 -13.1490917
  20.6466885 -29.2982311 -14.4691658 -12.5700178  28.8236904  -5.5722299
 -12.1489944  28.3303318  -4.8462481 -13.4366417  28.3821888  -5.6561117
 -10.2359724  10.5389719  16.7217331  -9.9467831  10.7741146  15.7662401
 -10.0203686   9.5699587  16.6817417  -8.0608358 -18.5944920   5.3563666
  -8.7484150 -18.3487015   4.6757565  -8.5945225 -18.7844563   6.1140618
 -15.6082039 -18.0974674  36.0072784 -15.3448620 -18.2553234  35.0589485
 -14.7354870 -18.2849140  36.4536934  10.1093092 -11.9202147  38.1578522
  10.6961594 -12.3107443  37.4844360   9.2532797 -12.0253201  37.6252823
 -39.4685020 -13.9868288 -17.5993328 -40.4128685 -13.8074121 -17.3405647
 -39.5316963 -14.2768955 -18.5464706 -29.2959194  17.9596138  34.7513428
 -28.3296967  18.0198631  34.7534485 -29.4945946  18.6967354  35.3179016
  -1.9424810   6.1163244  34.0536385  -2.9473686   6.3624272  33.9829025
  -1.5521621   6.9202561  33.6735001   3.5330284  -6.2981243  -0.2283539
   3.4767265  -7.2381158  -0.5753793   3.1995473  -5.8661637  -1.0760043
  -3.6336157  35.8383675 -26.3320751  -3.0042353  35.3708000 -26.9429741
  -2.9896400  36.4468307 -25.8771667 -35.8409843  13.2598038  22.9081783
 -35.3673897  13.0120363  22.0747547 -35.2379570  12.7624464  23.5599766
  34.8730316 -32.2466431  18.7352524  34.7524986 -31.4882030  18.1625767
  35.7227631 -32.6606712  18.5112305 -16.0780048 -49.0643883   7.2160830
 -15.8150644 -48.5896225   8.0226240 -15.5778275 -48.5245819   6.5923290
 -17.9488201 -47.5797844  -9.7861347 -17.3907757 -48.3691444  -9.4055061
 -17.1922283 -46.9968567  -9.9450665  -9.7246790   7.6093655  16.2675667
 -10.0725574   7.9526010  15.4104309  -8.8126440   7.9111691  16.2228718
 -39.8047180 -13.3180161  23.7614746 -40.5025063 -13.0310965  24.4165916
 -39.7508774 -12.4679508  23.2757168  -8.1072264  -9.4087496   7.3646569
  -8.1520758  -8.5726051   6.9307466  -8.3185530  -9.1843109   8.2817307
  11.1314869   5.5676570  33.0503273  10.8238411   6.4912786  33.0255280
  11.1275616   5.3870831  32.0897751  -6.2815619 -40.5207787   5.2343965
  -5.4801540 -41.1278915   5.2319446  -6.2809567 -40.3045044   6.1666765
  18.3077316  28.4398441 -10.9212399  18.5439987  28.7320614 -10.0047884
  17.4890842  28.9724941 -11.0119648  41.0675430   8.4403849 -16.9487915
  41.4701538   8.9179707 -17.6401863  41.2773094   7.5113645 -17.2596188
  -5.0089545  25.2441273  14.1748028  -5.4009700  24.8205547  14.9966497
  -5.4280243  26.1230068  14.2548275 -32.5929565 -10.0398321   2.5785878
 -31.6966381 -10.0830221   2.1603632 -32.3520508  -9.8846254   3.5036829
  -6.1172609 -36.5369682 -18.4739265  -6.8254480 -36.8624840 -17.8132439
  -5.5475912 -37.3320045 -18.4671154  15.8153944 -18.9783649 -36.5010605
  16.5548172 -18.5530128 -36.0618668  15.6186419 -18.3863182 -37.2515945
 -29.8660259 -31.5291786 -18.0416641 -29.8069477 -32.4354668 -18.2641697
 -29.1728554 -31.4472904 -17.3749657  20.7085896  20.1676865   0.9539202
  19.8181858  19.7869587   0.7432413  20.8446674  19.7405701   1.8617936
 -29.0554104  36.9990921  -3.6755266 -28.2618828  37.5251427  -3.4580469
 -28.6917000  36.0762482  -3.6184936   9.2625113  20.1086273  14.6897669
   9.6966829  21.0239658  14.8104572   9.5142279  19.9975033  13.7332954
  21.5744591 -34.8699837 -33.7765808  20.9080029 -34.2952003 -34.2161217
  21.6281433 -35.6006660 -34.4798012  -2.5920179 -28.2763023 -33.3787460
  -2.9329696 -29.1893711 -33.5416222  -1.7964410 -28.4724922 -32.8530731
  -2.8488569  36.6837769 -30.0469856  -2.5524206  36.0282059 -29.3691387
  -2.3501844  36.3069801 -30.7971020 -10.4784060  -0.8897869  32.9014664
 -10.6981001  -0.1081667  32.3798332 -11.3812180  -1.1873641  33.0945320
 -11.8413601 -25.5819435 -21.5661774 -12.5741692 -26.2671623 -21.7059879
 -11.5122938 -25.6300373 -22.4880753 -36.1932640 -33.6579018 -14.9577436
 -35.3478508 -33.1593666 -14.6476297 -36.3546371 -33.1815948 -15.7980118
 -42.7228394  11.8267822 -10.1415911 -42.4385223  12.7722454 -10.0634689
 -43.6676750  11.9941683  -9.7441797   0.6102069   0.8179266 -32.7217598
  -0.1975543   0.6662710 -33.2233696   0.4608420   0.3140178 -31.9017906
   8.3271809   3.6740131 -19.4037781   8.0936661   4.2608242 -20.1117935
   9.3138237   4.0581727 -19.3399525  -7.5535588   5.1611185  16.5094166
  -8.0162497   5.3749094  15.6908026  -8.3017836   4.9841065  17.0991364
 -28.1707039  20.8280163  27.4344215 -27.7184792  21.6762466  27.2121887
 -28.0844097  20.7984753  28.4117928  -4.8009753  44.9885635  12.6467752
  -4.9665728  44.4827652  11.8289824  -3.9910257  45.5376663  12.3324957
  29.3405628  14.9894352 -12.4335804  28.6631813  15.2964706 -13.0634613
  28.9342747  14.1212120 -12.1495419  42.9980583  -9.8209505  23.7936726
  43.8030319  -9.7207823  23.2306576  42.3231239  -9.9629936  23.1159782
  -3.6829009  38.8572083 -12.8404570  -3.9853528  39.6982613 -12.3655653
  -2.8362882  39.1940613 -13.1993637  -8.7958536  -3.5932856 -32.5695114
  -8.1628532  -3.2430439 -33.2872849  -9.6305494  -3.4703615 -33.0267448
 -43.6210594  16.4930687  18.1560345 -43.1944771  15.9151287  17.5188656
 -43.1383972  17.3372955  17.9783573  27.5189838   9.3039656   7.5950031
  27.8193779   9.7805281   6.8007293  26.6806335   9.6538076   7.8201571
  -7.0666132   5.4784455 -34.0597305  -6.7917714   4.6183209 -34.4367790
  -6.6667180   6.0850482 -34.7423325  -5.4481535 -29.5394573 -29.9118843
  -5.9942212 -30.2707443 -29.6759987  -4.5878067 -29.8305225 -29.6250401
 -36.5108032  21.7637215  14.6230288 -36.1218796  21.1424618  13.9242373
 -35.6906509  21.7929573  15.2305326 -22.0788918  -8.7784061  34.3659515
 -22.1346989  -8.4655809  33.4119873 -21.1345711  -8.5942879  34.5209351
 -17.2395744 -16.4076042 -13.4098921 -16.7373524 -15.8079815 -14.0525188
 -17.8803215 -16.7866898 -14.1063490  -4.5422382 -12.1137323  -4.6728005
  -3.5912178 -11.7996931  -4.7980762  -4.9249802 -11.5796223  -5.4806147
  -2.6758213 -30.6093273  34.8483963  -3.4579833 -31.0430202  35.1694984
  -2.6194506 -31.0067558  33.9238014 -14.8881378 -10.2809887 -16.7275944
 -14.0626497 -10.0897131 -17.2749100 -14.6964769 -10.0451269 -15.8481483
  42.5360413  17.8497028  10.3947258  42.8884506  18.4912415   9.7880478
  41.5879440  18.1454105  10.4528246  23.8358555 -32.9899025  -6.7513423
  24.1508026 -32.2784081  -7.3035722  23.1576042 -32.5232620  -6.2268615
 -15.3536921   8.5333347 -12.5087976 -16.2335777   8.5424042 -12.0428581
 -15.2662764   7.5426068 -12.6387577  10.8872595 -39.0476379   1.6661155
  10.2592630 -39.7706680   1.7942101  10.2519627 -38.4011078   1.2710867
  13.7990837  -9.8274508  32.2173042  12.9536448  -9.4410267  31.9614201
  13.4836092 -10.5208254  32.8650856 -31.3012524  -8.4813709  15.8575401
 -31.6676636  -8.0471201  15.0257301 -30.9662647  -9.3062696  15.4958124
 -18.0625725  -6.5597944 -33.9714890 -18.3857899  -7.2770710 -33.3309402
 -18.0079021  -7.0996184 -34.8239937 -42.1221428 -13.6638031 -18.0412865
 -42.2048759 -13.8398743 -19.0092487 -42.9410591 -13.2488499 -17.8665276
  -3.5694504   1.6816365 -17.7857189  -4.2944374   1.7792523 -18.4873104
  -3.3266184   0.7658755 -18.0744572  -2.1568649  -9.7169428 -26.8787346
  -2.6092293  -8.8512335 -26.8964462  -2.8591952 -10.2743921 -27.2423916
  -9.1237288 -17.8825798 -20.8066311  -8.1841536 -17.9519157 -20.6143990
  -9.5150957 -18.1755962 -19.9425945  19.1992531  -9.4239149  -9.2352381
  18.6121559 -10.1384211  -8.8635111  18.5245609  -8.8593559  -9.6515646
 -29.3405399 -13.1405659  19.8498554 -29.0161610 -12.2354603  20.1964493
 -29.8038712 -12.8424120  19.0519924 -17.7089176  30.6857185 -31.5707684
 -17.0818691  29.9323673 -31.7440662 -17.0901833  31.3293610 -31.1626415
  13.7056370 -15.6435909  35.4892693  14.5605392 -15.9137058  35.9384232
  13.3587856 -15.0975389  36.2389374   3.7516150 -42.0228271  14.3276453
   3.9961801 -42.7098236  15.0254545   3.5840664 -41.3012123  14.9724541
   7.0082626 -42.1574707  -5.1825452   7.6632128 -41.7797050  -4.5607243
   6.3880110 -42.6027451  -4.5114756  30.3595371   6.1072450 -19.3036442
  29.3949146   5.9395800 -19.4554100  30.2245140   6.7733636 -18.5957813
  24.8301620   8.7647505  35.1860962  23.9192238   9.1262264  35.0700836
  25.2615871   9.4869804  34.6711960  38.9619217 -17.6019440 -29.6967144
  39.9258308 -17.6004181 -29.7771244  38.7148705 -17.0578461 -30.4168549
 -27.8022976   3.0856490  15.8588190 -28.0543346   2.7626543  16.7487812
 -27.7877293   4.0570135  16.1117191  24.0114365 -22.2465477  -4.8524818
  23.7258568 -21.6927357  -4.0733957  24.0597134 -23.1170750  -4.4867086
 -23.3834019 -23.8039589  -7.7638359 -22.7188492 -23.8617020  -7.0378881
 -24.0348186 -23.2121735  -7.3373337  42.8357353 -15.4171410   8.3288221
  43.1317101 -14.6173878   7.8766723  42.1818619 -15.0317135   8.9391241
  13.9837875 -31.6567707   7.5898561  14.1040173 -32.4085579   8.2815533
  13.5428858 -31.0325470   8.1976318 -33.7889900 -26.9651127   1.1778018
 -34.7308846 -26.6777210   1.0080091 -33.9169693 -27.8936520   1.2077374
   7.4751868  15.0606308   2.3726451   6.9613318  14.3246593   1.9911348
   7.6888442  14.7399435   3.2633893  -1.6910173  -3.7010260  31.6722126
  -1.9608254  -4.6238608  31.4376888  -2.2394569  -3.4961953  32.4685516
  -4.4547620  23.0161476 -38.8663521  -4.4391665  22.1315250 -39.3579826
  -4.6684465  23.5953236 -39.6125298  42.4204063  -5.6384401 -27.4880314
  42.9846916  -4.9085917 -27.0272331  41.9902649  -5.0528402 -28.0868530
 -10.5236797  32.5242424  -4.8459644  -9.7007780  32.0328026  -5.0740080
 -10.0592747  33.3656044  -4.5024395  -6.8095217  38.7170753  25.1969814
  -6.4628611  37.7788200  25.3701630  -7.3370490  38.8181953  26.0497990
   4.8832321 -32.4794235  12.2675228   3.9339840 -32.4538574  11.9271584
   4.6019187 -32.4745789  13.2650890  42.8362885  24.6280823  21.5284042
  42.3858566  24.4959736  22.4146652  42.3685989  25.4776382  21.2760487
   8.9644423  18.5419273  -0.1962814   9.2773418  17.6241188  -0.2535335
   9.1885433  18.6865311   0.7506821   6.4213843 -25.0689640 -25.2353497
   7.4062915 -25.0806046 -25.4088478   6.1864820 -24.2800713 -25.6892357
  -4.5781999 -12.9066324 -44.1646309  -4.7341781 -11.9021311 -44.1954346
  -5.3532500 -13.1427507 -43.5621414  23.5082130   6.3826756  10.1822262
  24.1060543   6.7204280   9.4272861  22.6410656   6.4460521   9.6943722
  34.1622772 -22.7583199  28.6230812  33.8270302 -21.8337250  28.2934723
  34.7886887 -22.8550797  27.8261795  29.4857731 -15.5048447   2.6253850
  29.1803646 -14.9882126   3.4289925  28.6832771 -15.7954683   2.1896682
  29.4022083  30.8167419 -22.5937405  28.8486271  31.6531334 -22.7893944
  30.1089573  30.9500027 -23.2124481  -4.8865113  -2.4410446  -7.5636029
  -4.7914906  -3.4069972  -7.6974916  -5.7893443  -2.4197888  -7.2106519
 -37.4837189  10.5373726  31.9942207 -37.3497696  10.8437710  31.1455307
 -36.6411285   9.9868326  32.1832314 -20.8971710  24.4118137  36.4402046
 -21.3779392  25.1585255  36.0607491 -21.5011196  23.7184486  36.1313286
 -22.7172298  -9.0480709  26.3444729 -22.3945503  -8.5741482  27.0640202
 -22.7948380  -9.9400616  26.6871796  14.7344732  20.4446774  25.5744476
  14.7201986  20.3153152  24.5993042  15.5373611  21.0049477  25.6429482
  -9.4649162 -25.3236008 -31.0791225  -9.7985210 -25.7184162 -31.9082203
  -8.6795187 -25.9085751 -30.9741516  -6.8599305  37.9383202  -4.6528149
  -7.3803821  38.0800323  -3.7871225  -7.3460684  38.6595840  -5.1843877
  20.0629063 -28.6256180  34.7328720  20.7690296 -29.1746597  34.3638687
  20.0469036 -28.9779930  35.6304817 -34.5921707   0.7120978 -22.7333660
 -33.9170570   1.3293962 -23.2045212 -34.9866371   1.3594595 -22.1210880
  -3.5971286  37.2090416  21.6121616  -3.0471039  36.9467010  22.4015560
  -3.4855590  36.3714790  21.0612621 -24.3903885  14.3497162  23.2844543
 -24.5099697  15.1897364  22.8512459 -25.1786613  13.8174915  22.9569073
 -30.8698235   8.4263611  22.7267590 -30.5361710   8.9046125  21.9175510
 -31.4598427   7.7958016  22.2886772 -26.3933105  17.8164482  37.9480400
 -26.0327415  17.2419395  38.6577950 -27.1667137  18.2389641  38.4516068
 -34.3666191   5.5291505 -20.2541866 -34.7031288   6.3926663 -20.3605232
 -33.6303864   5.5561752 -20.8895283 -19.2045383 -14.2024918  20.9670258
 -19.1271362 -13.7222157  21.7989998 -20.1789913 -14.3463316  20.9269257
  24.5587711 -17.2029686 -24.7049847  24.6533699 -16.9433270 -23.7810783
  25.3277664 -17.7447395 -24.7690372  14.8706236 -20.7779007 -48.0745049
  14.5348263 -21.3170547 -47.3920975  14.2283888 -19.9992313 -48.0016289
   4.5863700  -7.6621490  30.3066387   4.9393559  -7.9082456  29.4817753
   3.6495938  -7.8453064  30.2256184  37.3890915  -0.8164126 -10.2966375
  36.9709206  -1.3374521 -11.0162477  36.7704239  -0.1569252 -10.1149130
 -40.6030807  -8.5835285  24.5703182 -39.6186485  -8.3654852  24.6742420
 -40.7307701  -8.8858824  25.5431194  12.0895615 -40.7408638   7.0435810
  12.5053787 -41.4974251   7.3609295  11.7343102 -40.9615555   6.2159100
   1.8834041  36.7287674 -32.1284637   2.7007098  37.1952820 -32.3587799
   1.8337820  36.8194771 -31.1551456 -18.3083401  -1.4638461  43.0206108
 -19.0133209  -1.8398802  43.6073227 -17.9024963  -0.8404847  43.6478996
  15.0122318 -11.5798273  10.4347000  14.2215986 -11.1016121  10.1013155
  15.3962879 -11.9028683   9.5762043   9.6505909 -31.3317165 -15.5965624
   9.5237255 -31.1479778 -16.5789337   9.6496267 -30.3462868 -15.3267651
  23.0320110 -16.6206379   3.2411385  22.8978214 -15.7062283   3.4968128
  22.9785786 -16.5609055   2.2397592 -25.5158329   4.0983009 -28.9187984
 -25.1401386   3.1869469 -28.7527847 -25.8391285   3.9914622 -29.8201942
   4.2191148  -6.5985551   2.4513228   4.4495087  -6.5611777   1.5311085
   3.2367346  -6.5378113   2.4618752   0.5541845  -2.6514652 -28.3764133
   1.3713206  -2.3842542 -27.7915478  -0.1277418  -2.1351600 -27.9595146
  -4.3187380 -12.9789753 -23.3268414  -4.8967786 -12.5090208 -24.0025043
  -4.1438189 -13.7497616 -23.8955669  14.0744133 -33.9105453  30.8993225
  14.4796028 -34.7802124  30.5425110  14.6186695 -33.8420029  31.7097397
 -11.3650255  36.8368034 -27.0354061 -10.9449196  37.3283234 -27.7222061
 -10.9518585  37.0434685 -26.2190704  -7.3306074 -46.9050255 -19.3837109
  -7.1448598 -46.4390297 -20.2314949  -8.0538273 -46.3540993 -19.0053577
 -12.9324598   8.5628748  22.2534847 -12.9051447   9.3852282  21.7680473
 -12.5787306   7.9645014  21.5350533  31.7537937 -33.0594978 -20.4772224
  32.6244659 -33.4468651 -20.8173847  31.1262932 -33.4405365 -21.1461029
   6.8593187  23.6628952 -16.1789474   6.2485933  22.9069309 -16.2685928
   7.5984273  23.2586231 -16.7337284 -13.8044701 -17.8450222  18.0567493
 -13.9346380 -18.0435600  18.9901886 -14.7339592 -17.7166157  17.7678051
  28.3791847 -26.1231556 -12.1349745  27.6741943 -25.6269493 -11.5824032
  28.6953220 -25.3751163 -12.6188488 -24.4990520  23.5296211 -10.0058661
 -24.4484177  23.8527126 -10.9406862 -25.5318832  23.4650478  -9.9412355
   2.1005006  24.7816505  20.5587692   2.9265454  24.4343681  21.0255394
   1.4252632  24.4261971  21.2164211  -0.2351858 -40.0071297  19.7251720
   0.4436203 -40.4069786  19.1590691  -0.3659796 -40.6632996  20.4225769
  15.6610870 -39.3946266   0.1306008  14.6532927 -39.3149071   0.2556412
  15.7665892 -40.3180771   0.4822484 -24.1879406  37.7398300 -10.7024193
 -24.6416416  37.8393593  -9.8538170 -24.6443119  38.3070793 -11.3048182
  41.8477325  12.8127003  19.5565014  42.1892166  13.4973164  20.1020679
  42.0398102  12.0120115  20.0835400 -25.8234348  16.6098118  -9.6971054
 -26.1884842  17.4569893  -9.9490805 -25.2494907  16.4132538 -10.4398994
 -29.7117863  24.4031982 -33.2514458 -30.0344219  24.1692638 -32.3967285
 -28.7689285  24.5022869 -33.1302376   8.9333038  19.6774101  34.7075920
   8.1204557  19.6845512  35.3085365   9.3508396  18.8680477  35.0109367
  40.9925919   7.0773282  14.9917927  41.5873718   6.3475223  14.7112417
  41.4868240   7.2911291  15.8410769  26.0769978  41.2641907 -12.2620840
  25.8771133  42.2154732 -11.8889275  26.7400627  41.0350838 -11.6211081
 -17.8591080 -30.3227558   4.2426076 -17.0984039 -30.1611557   4.8845310
 -17.6847496 -29.5222969   3.6551554  -7.1673951  36.1469193 -24.2932224
  -7.1254921  35.3108559 -23.8139877  -6.5302444  36.6853714 -23.7211266
  17.9386616  32.5066338 -14.0149403  18.3959026  31.7442913 -14.4442511
  17.0324745  32.1736565 -13.8620129  39.1673317  19.2185955  -3.4464777
  38.5199203  18.6228409  -2.9868770  38.7135811  20.0980225  -3.1594770
 -19.4150105  31.1943169 -14.5606661 -18.5570145  31.3011093 -14.1249342
 -19.5600414  30.2189331 -14.4601259 -29.1106625 -15.1953306  21.7575684
 -28.6041698 -14.7707748  21.0051041 -28.8678036 -14.5599918  22.4728432
 -13.5317163  41.4467087 -12.1678944 -12.7310705  41.3707314 -12.7197447
 -13.5731564  40.5093689 -11.7942791  -2.3769376  -2.6025238 -49.9676628
  -2.6962166  -3.4773152 -50.3803711  -2.9619267  -1.9719629 -50.4171753
 -11.2786970 -31.4282112  14.4634304 -11.8097448 -31.4716816  15.2461576
 -10.7433510 -32.2518158  14.5833750  36.5412064 -24.6806393 -27.6988487
  36.2668152 -23.7561607 -27.8320084  37.4190979 -24.7060719 -28.2281342
 -10.4297523 -38.2070084   6.1311140 -11.1252995 -37.7110672   5.6040339
 -10.3759155 -37.6006317   6.9149184   5.1280484 -32.2327766  19.8045082
   4.3504829 -31.8050900  20.2218037   5.0341663 -33.0855865  20.3450584
  -7.6922240  18.6925983 -33.9772606  -7.6464453  18.5353909 -34.9141388
  -7.4633670  17.8053780 -33.6148872  -7.3170872  -6.6595764  21.1356602
  -7.4011030  -7.4175911  21.6352901  -7.2616577  -7.0448256  20.2102528
 -16.5413895  40.5585632  21.2392216 -15.8145943  39.9842911  21.5605431
 -16.4064713  40.4862366  20.2940884  -5.2424564 -17.7501698  12.5684710
  -6.0541162 -17.2677441  12.5956535  -4.7100263 -17.2079639  13.2136641
   1.2623155  19.1664219  -6.1148653   0.8458610  19.9146004  -6.5770626
   0.7248691  19.0709152  -5.3378158  34.8957329  10.5472841  -6.6196365
  34.3271408  10.4672279  -5.8247781  34.7365570   9.7359304  -7.1305175
  42.2441597  -2.9981277  -1.6274858  42.5304565  -3.2403498  -2.5383298
  42.0165710  -2.0415876  -1.7578284  -7.5158272  17.0168743  31.0770092
  -7.5739675  17.2656746  32.0439110  -6.7568936  17.6304398  30.9038811
  25.6191807  -2.4796712  32.9368858  24.8823509  -1.8156267  32.8608818
  25.2294884  -3.0596697  33.5747871 -17.6220226  -7.6242743 -28.0728130
 -18.4618492  -7.5630722 -28.5763130 -17.3373165  -8.5905504 -28.1754951
  -4.4048619  35.1871147  -9.7002239  -3.7247579  34.7142067  -9.1812582
  -4.5919724  34.5872917 -10.4225016  -7.8590608 -22.2411842 -34.1862335
  -8.5542545 -22.3524628 -33.4365654  -7.6795783 -23.2019196 -34.3377724
  -7.0881333 -11.8463526  42.6986084  -7.3196411 -11.9268007  41.7285309
  -6.4051251 -12.5621967  42.7027664  13.4311466 -42.1480827  -5.7619209
  13.8952065 -41.9452019  -6.5326729  14.1045475 -42.5328445  -5.1674371
  11.7402935  -7.1450796  27.6117191  11.4825926  -8.0626450  27.9383316
  12.4498425  -7.4352441  26.9917984   9.2016382 -20.7290840 -14.2699795
   8.9863367 -21.1853046 -15.0828552   8.6532164 -21.2809525 -13.6179056
 -31.8314648  29.0438213  20.4611816 -31.0038204  29.2453938  19.9920502
 -32.2505836  28.4225216  19.8133297 -41.2589073 -22.0494194 -17.9645748
 -41.1890793 -22.6194229 -17.1931992 -40.5085869 -21.4927788 -17.9004765
 -24.7694855 -15.7177639 -19.5790844 -24.5467281 -15.3421345 -20.3991451
 -25.3384323 -16.4728909 -19.8949127 -35.9570122  -3.9486020  30.2292042
 -36.2083549  -4.8730826  30.2034950 -36.1393509  -3.7142761  29.2681599
  -0.1669977  30.6742153  36.6361237  -0.7125179  30.5051289  35.7824135
  -0.4348921  31.6185837  36.7435951 -12.6668558 -14.2178593   0.8238721
 -12.0976286 -14.1612053   0.0288834 -13.5437412 -13.9902849   0.5310763
  -1.6284783   3.2818515 -27.3277206  -1.1473204   2.6916909 -27.8979683
  -1.9150767   2.6868265 -26.6359272 -11.5342455 -12.3236523  22.5847874
 -12.4683676 -12.3493023  22.7915936 -11.5431261 -11.4692564  22.0262966
  -5.2759762  -7.9925675  16.3282604  -6.1169186  -8.3869534  16.1918755
  -4.9314861  -8.3077908  17.1884155   5.1791515  48.6727295   8.7504349
   4.4784589  49.0782585   8.1366510   4.6207957  48.4553413   9.5366011
 -22.8568554  17.7457886 -15.6416130 -22.9185944  18.5041237 -16.2926807
 -23.7724590  17.4544353 -15.7241497 -21.8906765   6.0872335  11.1726379
 -22.1460571   5.1454444  11.1925039 -22.7501450   6.4857559  11.3560200
   7.8092380 -14.2281494   1.6937251   8.6074123 -14.7492170   1.8173182
   7.5982447 -14.4989014   0.7636448  14.4779682  12.3877153  28.7223034
  15.1395864  12.5218916  29.4895039  14.8201427  13.1847496  28.2315922
  -8.6767054  25.6968994  16.3332405  -8.8990955  25.6968937  15.3703909
  -9.5614195  25.7414780  16.7563553   3.6634805  -6.5896635   6.2097902
   4.4430313  -6.9696898   5.6918426   2.9078846  -6.9976535   5.7900481
 -14.8908033 -12.8989067  20.9312172 -14.9362602 -12.8719730  21.8772144
 -14.1160126 -13.5323963  20.8473186 -38.1895638   7.6547503  30.6640682
 -38.6013412   8.1857729  29.9719372 -38.5743446   6.8012094  30.6196117
   7.4259634  34.9866638  -9.5090981   7.6003046  34.5997429  -8.5964537
   8.2072506  34.6582298  -9.9772921 -35.0927582   6.3016701 -29.4918652
 -35.2772942   5.9087820 -30.3393192 -35.9266014   6.7799287 -29.3294163
  28.8210106 -13.5272579 -16.1671181  28.4208717 -14.1186638 -15.4533558
  28.0989628 -12.8749609 -16.1583729  -8.2337904 -14.6001463  -7.2341270
  -7.3360224 -14.2999773  -7.3129168  -8.7116461 -14.1482010  -7.9599633
 -22.3779297  18.8053875  -4.1355739 -22.7156334  19.2767544  -3.3442943
 -21.8319530  19.4371891  -4.5812049   1.5955533 -32.8696251  36.1848145
   2.4596345 -32.4833527  36.0706978   0.9942194 -32.1280136  35.9564362
  12.5921564 -14.5921173  11.0875940  11.7835732 -14.1487761  10.8229494
  12.6400967 -15.3352127  10.4700851   2.7923965 -27.9641342 -29.5372353
   2.5203004 -28.7123604 -28.9095364   3.6591027 -27.7880020 -29.2232838
 -11.4385777 -22.0238876  -1.5419250 -11.6195316 -22.8593540  -1.1195422
 -10.4272070 -22.0522079  -1.6103370   1.2502893  -8.3344746  35.9286270
   0.5181035  -8.5613432  35.3041000   1.9522589  -8.8121071  35.3707085
   1.4968420  13.3074703   1.4858332   1.6763765  13.7153158   0.5844873
   2.2221041  12.6528521   1.4512416   2.4280291 -16.3873272 -37.5619011
   2.0319898 -17.0360069 -36.8942146   2.5388629 -15.5758514 -37.0605850
  22.4584274 -21.2483673  35.9146652  21.4444065 -21.1953259  36.0534668
  22.5007877 -22.1268578  35.5975342  18.3578606 -30.5919228   1.7248375
  18.6149940 -31.4116840   1.3467907  17.4147377 -30.5501442   1.3536940
 -34.7286797 -31.4166393   8.2393675 -34.6642570 -30.6358929   7.6390853
 -34.4101105 -31.0812798   9.1233540  -4.4056168 -29.7714367  24.5188560
  -3.8470333 -30.3995571  24.0512962  -4.9828062 -30.5232582  24.9601994
 -29.3022003  17.4276218 -18.2675858 -28.6242561  16.9394112 -17.7355080
 -30.1437435  17.0891075 -17.9104557 -26.4266167 -34.4314613 -22.6901035
 -26.1544113 -33.8088493 -21.9685860 -27.4196167 -34.1610489 -22.7098103
  12.9025383  -8.2527170 -50.3395157  13.6238480  -8.6945333 -49.9112549
  12.7557487  -7.5434532 -49.7324257  33.8784637   0.3354280  29.4080372
  33.7454300   1.2598547  29.7307281  34.2296638   0.5662581  28.5086155
  38.0192261   3.5548010  10.8830862  37.9805145   4.1024580  11.6748867
  37.2757339   3.9428504  10.3615084  18.2125378  -9.6679010 -26.5656643
  18.0394745  -8.7080936 -26.4016094  18.6892548  -9.9088669 -25.7579498
   2.2470655  -7.6181312  49.7969017   2.8053086  -7.9989252  50.4704475
   2.0289783  -8.3769751  49.3290405  40.7410202  -5.0719352  13.3212805
  41.0594177  -4.4326859  13.9624996  40.0877075  -4.4676557  12.8404818
  29.1579399 -28.0036297  23.9924603  28.9699783 -27.2777061  24.6410999
  28.3569756 -28.5267334  24.2012558  25.1181946 -28.4368992  -9.1591234
  25.4047298 -27.9164982  -9.9401693  26.0360909 -28.5226078  -8.7478170
  -1.2656032   8.5119390   0.2955426  -0.4024102   8.7162228  -0.1388399
  -1.6814008   9.4085674   0.1780192  32.3318253  19.1019211  -6.5235586
  33.2747803  18.8951969  -6.2507715  32.4776459  19.6484127  -7.3163762
  18.9889317  -3.4948325 -14.6141825  18.4593086  -4.3015447 -14.5047846
  18.8240471  -3.0679951 -13.7015057  31.0615540  -0.6497777  24.9400253
  30.9442825   0.3413843  25.2771835  31.7118416  -0.4611655  24.2421894
  10.1217699   2.2787042   0.1165394  10.8101730   2.5557866  -0.4869982
   9.6710224   1.5919788  -0.3090635 -27.9466591   7.5094585  -3.6883359
 -28.2392426   8.4269772  -3.9351380 -27.4070911   7.3321795  -4.4550982
 -31.4051304  21.5795021 -26.7363338 -31.8995476  21.4596062 -25.8564758
 -31.6314926  20.7270641 -27.1411133 -36.1310387  25.8508720  -1.9175940
 -36.9710007  25.8707180  -2.4582946 -36.4053230  25.2334080  -1.1741159
  -3.4584293 -15.5782166 -39.3567467  -3.1885188 -14.6348839 -39.6149597
  -2.6018803 -15.9143848 -39.1862526  -7.3407483 -29.4239693  -4.1749306
  -7.1911359 -28.8275757  -4.9646907  -7.5782518 -28.6659279  -3.5218296
 -24.6140690   0.6410673  14.4792042 -24.5382309   1.5758629  14.8697577
 -24.6513672   0.9057547  13.4975319 -28.0724907 -13.9852190  27.9915943
 -28.1653938 -13.6003962  28.9117489 -27.0927181 -14.0685148  27.9448376
  23.9577236  34.4667130 -13.1914740  23.7777977  33.7120018 -12.5733013
  24.7438049  34.2354660 -13.5637846  25.5981236  31.5279942  -3.1882234
  24.6512737  31.4116650  -3.3355649  25.6951275  31.4137421  -2.2243059
   0.6216084  30.7400417  -6.1861482   1.1958922  31.5045624  -5.8656549
   0.5784818  30.1939945  -5.3455334  23.5871887 -22.1490841  29.7508373
  23.2418041 -22.8653679  30.4137535  22.7264385 -21.6110096  29.7039661
 -41.5678558  23.6908417  16.3905487 -40.6690483  23.3739967  16.2706757
 -41.6100311  23.6639900  17.4256973   1.6515652  47.9955444 -10.7409754
   1.4253129  47.4417076 -11.5548544   2.6129663  47.7055817 -10.7008867
 -17.7123871   9.0413094 -11.1869535 -18.0340290   9.9899464 -11.1357622
 -18.1081543   8.7107906 -10.3627977  16.9868412  -0.7492430 -23.1225529
  17.7151585  -1.3794243 -23.3842564  16.3507500  -1.3726732 -22.7053318
  43.4254837 -15.2991552   1.0172105  42.7239723 -14.7881184   1.5964029
  44.1651192 -14.6599302   1.2051461  -7.1005988 -42.4796600  12.9147263
  -7.5242853 -42.2006035  13.7622585  -6.1790466 -42.4708328  13.2377176
  10.1103792   5.1603842 -31.9666615   9.6756840   5.8423028 -32.5050774
   9.3534536   4.5425644 -31.9029675 -17.0732727 -19.8726902  -5.3605366
 -16.2050247 -19.3118362  -5.2107544 -17.5034790 -19.5487137  -4.5347004
   2.5480309  26.0107536 -18.1825218   2.2536008  26.5428658 -17.4360390
   2.1870308  25.1557407 -17.9288044 -35.4529915   7.2132530  30.4292717
 -36.3087540   7.6291537  30.3936176 -34.9006958   8.0193949  30.2953415
 -20.7384319   8.3222389  21.1988220 -20.1243210   8.5447578  20.4531517
 -21.0181160   7.4387288  20.9413719   2.7433298 -45.5741119  -2.7800121
   2.5762351 -44.8493118  -2.1058097   3.6867418 -45.6294022  -2.6853971
   0.9033617  -7.0074983 -16.7562389   1.4051464  -6.9743772 -17.5849686
   0.3290434  -6.2039709 -16.8470573  40.3634758  -4.0927572  17.1501293
  39.4486694  -4.2478280  16.7691879  40.1274490  -3.7684109  18.0502777
  40.2882080  26.1243801 -16.0409966  41.1907387  25.7411213 -16.1927109
  40.4596329  27.0244255 -16.4525299   3.1225536  34.8526878 -12.7915335
   3.1721737  34.4770126 -13.6914558   2.2963221  35.3433151 -12.7900152
 -11.8055105   6.8033776  11.8590469 -10.8691845   6.9122729  11.8120985
 -12.0438766   7.8145995  11.7318172  24.6252346 -19.7592850  -0.1779387
  23.8530865 -19.8291912   0.4999785  24.9353008 -20.6612244  -0.1602278
 -14.3711023 -47.3125343 -14.0660114 -13.7358522 -47.2371407 -14.7861004
 -14.4974632 -48.2948570 -14.0821800 -29.6386452   8.9080763 -13.3033848
 -28.9343910   8.2460165 -13.1176853 -29.3549004   9.2691164 -14.1548586
  37.9577484 -15.0435104 -11.5729208  37.2655792 -14.9862671 -12.2695866
  37.8613663 -14.1629267 -11.1375494 -22.7137375  10.9328995   0.3387071
 -23.6287880  11.1349716   0.0482426 -22.8140450  11.3262796   1.2768847
   4.9270010   9.6865931   5.0763021   5.5709233  10.1685648   4.5630698
   4.3085022  10.3495417   5.4104133  19.4992714 -36.4911041   3.7531769
  20.1366119 -36.7706299   4.4486589  18.7869720 -36.0557976   4.2365451
  -0.6436521  -7.8702278  27.0308628  -0.0012436  -8.4269228  26.4861221
  -0.5096116  -7.0564384  26.5120087  17.3176765  28.1678066 -30.1214523
  16.9556217  29.0611610 -30.4028854  18.2748165  28.3911285 -30.1627483
   4.1111321  33.2300186 -19.3092880   3.3734910  32.8313179 -19.7621708
   4.1696272  32.7966118 -18.4211864  21.1134453 -20.6574535 -24.1938515
  20.4394207 -21.3669167 -24.1606255  21.1598759 -20.6431580 -25.2088661
  -7.5126352  22.0048771 -29.6326504  -7.6856127  21.3154011 -30.2191620
  -7.4121890  21.6352959 -28.7594662 -21.1818428  -6.3375654   1.6641772
 -21.9585285  -6.3092012   1.1023834 -20.6515331  -5.6331053   1.2370906
  25.7372437 -20.5781956   4.3552732  26.4815254 -21.2041550   4.3854761
  25.8954601 -20.1829987   3.4401236   2.4554441   2.8064744 -32.2711983
   1.8729633   2.1924198 -32.7193146   3.3542850   2.3769505 -32.3103943
 -23.3539639 -26.8424091  19.6157722 -24.1168556 -26.5677223  20.0643482
 -22.6863327 -26.5205841  20.2872868  38.3981972  -3.7126622   8.6392241
  38.1600876  -3.2307878   9.5192575  38.5660477  -4.5685363   9.0327826
  10.0363636  47.8852348   8.6305609   9.4400072  48.2512131   7.9203062
   9.5085201  48.0725021   9.4129715   3.1412048   8.1910610  22.8880329
   3.4200988   7.2198162  22.9097309   3.6322834   8.4211950  23.7037811
  30.5738411  15.3085909  22.3081474  30.1502094  14.4587622  21.9506798
  29.8581581  15.9205341  22.0650902  20.7743969 -20.7456608 -10.1224489
  20.7380009 -20.9730473 -11.0468330  20.2063885 -19.9335499 -10.0663118
 -11.8835049  38.7303162 -15.4249086 -11.9832850  37.7623215 -15.6016512
 -12.6981955  39.1033096 -15.6365795   1.9448757 -45.7372055 -26.7377338
   1.6373296 -46.5017014 -27.2682247   2.7750516 -46.1033134 -26.4424210
  -9.8954344  22.9667320  -6.1828179  -8.9805832  23.1982765  -6.5547185
 -10.3306904  22.8130035  -7.0215359  28.7433872   9.7063627  33.4836273
  28.1864471  10.4495401  33.3167343  28.1085587   8.9796352  33.2987328
  -6.1787348   7.4725537  11.4245996  -6.0178809   8.1383753  10.7335310
  -7.0860963   7.1901736  11.1781731  13.2131624  23.8142738 -14.8430071
  13.1181364  22.9303780 -14.4341717  12.2452364  24.1182919 -14.6920090
  13.0650482  38.6120071  13.4871111  12.5809145  38.2111206  14.2628241
  12.8826742  37.8914948  12.8053427  15.0023136  20.0954113  -9.6984673
  15.5592680  19.2567806  -9.5429049  15.7592611  20.7215366  -9.9269905
   4.1649666  16.7597904  12.6956854   5.0634470  16.4572792  12.3650589
   3.6055689  16.2650318  12.0353203  11.6279621  27.8708076  -0.4563759
  11.1903334  27.2298260   0.1595485  11.9387074  27.3252811  -1.1604681
  33.0544395  11.0699091 -31.1921234  32.9794884  10.8569603 -32.1064491
  33.3495445  10.2488794 -30.8131828 -14.7223816  38.1691208 -25.4820995
 -15.3824492  38.0914955 -26.2572250 -14.2918472  38.9909363 -25.8838310
 -28.1480179  -7.6228399   4.7784710 -28.6467705  -6.8844342   4.3291163
 -27.2199230  -7.2941623   4.6169047 -39.4233856 -21.1398945 -24.1920052
 -38.7570763 -20.3920021 -24.2697601 -40.2444496 -20.5571442 -24.1136513
 -14.2888374   9.6320858 -19.6031742 -13.8802748  10.4181147 -19.3622990
 -14.1859245   9.1071014 -18.7662945 -10.0880671  35.8750076 -31.8829174
  -9.2018480  35.8031197 -31.4863129 -10.5088444  35.0709038 -31.5289440
  21.3677082 -22.4080429   4.4596219  21.4911137 -23.0563145   5.2139387
  22.0034561 -21.7243443   4.7745581 -26.1053562  -9.1243000 -36.0239716
 -26.7657776  -8.4856901 -35.6293526 -26.3990688  -9.9212809 -35.4495201
  20.8460751  -5.4746118 -35.5044441  20.7531719  -4.5240188 -35.2581177
  20.0307789  -5.5527153 -36.0402489  27.6209984 -10.9125862 -27.1970501
  26.8842487 -10.4685163 -27.6628704  27.7044964 -11.7233524 -27.7184658
  25.1302834  20.8252506  20.8686085  24.4441605  21.4224796  21.2356701
  25.8370876  21.4372139  20.6258354   2.9523377  19.4560089  -2.5845652
   2.3594337  18.7165279  -2.7099266   2.4119720  20.0376244  -2.0711911
  27.9731426   0.8783861 -12.9964743  28.2479229   0.0057946 -12.6479912
  27.3920002   0.5503561 -13.7502480  14.9008951   0.9680917 -17.9534321
  14.0008717   0.7288316 -18.2033615  15.3598642   0.1588618 -18.2663956
  25.1409130  38.4175415 -17.9227066  26.0740910  38.4511757 -17.6496124
  25.0490284  37.5227318 -18.2489281  23.7077560  41.2407837  15.9251051
  23.7616596  41.5901718  15.0288725  24.5626659  40.7524872  15.9808264
 -19.1935329   0.2443822 -37.0805969 -19.8106499   0.9944147 -37.1708870
 -19.3843575   0.0060007 -36.1576576  42.6888962   3.7115436 -32.6239662
  42.6483727   3.4845722 -31.6506538  41.7292290   3.6340122 -32.8111267
  -7.2843437 -44.0756989  -9.6621971  -6.7001057 -43.3327942  -9.9991579
  -6.7020993 -44.3271523  -8.9114866 -12.1410551  31.9531574 -14.4032869
 -11.9715424  32.6972427 -15.0239124 -11.4350414  32.1473846 -13.7296858
  -0.0486842  17.7713299   2.0736516  -0.7149771  17.1354542   2.4013553
   0.6604872  17.1615658   1.8159828  11.0289078  49.0338440  -0.8633503
  10.5654116  48.9948120   0.0103691  11.8799257  49.4572067  -0.5025892
  35.0850563  -8.7296019 -32.7678375  35.5908813  -8.3494053 -32.0175362
  34.7529716  -7.9190474 -33.1922989  -9.7126560  -3.1878278 -29.8771744
  -9.2545214  -3.3923907 -30.7289772 -10.3950167  -2.5980284 -30.2523537
 -28.2962799  -4.6735477 -14.8668737 -28.3102932  -5.5997500 -15.1486197
 -29.0591812  -4.3368630 -15.4079781 -23.9479561  12.0761366 -43.2997208
 -24.8795547  12.5336332 -43.1557846 -23.4980736  12.7564898 -43.7281265
 -28.3557396 -20.8099518  -2.5996518 -28.0563126 -20.1448441  -1.9556261
 -27.9211922 -20.4303703  -3.3858132  43.8931389 -20.3380413  18.2850533
  43.9040070 -19.5178337  18.8424530  44.3011742 -20.9283905  18.9613495
 -31.3792610  33.2461967 -10.4218016 -30.9360027  32.3687019 -10.4906502
 -30.7177658  33.9054832 -10.5662441 -42.5848541   9.7310400  17.3290768
 -43.5150795  10.0290384  17.2106609 -42.4413528   9.2185898  16.5123405
  41.0086861  29.7223053   1.1615657  41.1330032  30.0456829   2.1010411
  40.5772629  30.5325165   0.8154593  12.5845652   7.6608438   0.5455223
  13.2246332   7.5224786  -0.1785275  12.3779631   6.7041097   0.7701238
  31.3509464 -27.1740093 -27.2707100  32.2933807 -26.9201088 -27.1027622
  30.9388485 -26.7674770 -26.4704971  -0.8446698  -0.7946486 -24.5370979
  -0.9552482  -1.6662675 -24.8455601  -0.1155791  -0.4929270 -25.1767159
  16.2402744  20.5103531  -2.2881942  16.2746849  19.7504215  -1.6174877
  15.3163605  20.4162235  -2.6448734  -0.3973862  28.6196899  15.9645500
  -0.0524382  27.6799946  15.8116636  -1.2636033  28.3495483  16.3892918
  37.7888832  21.4937534 -21.5764217  36.9190292  21.5716381 -21.1404610
  38.1488724  20.7329960 -21.0698185   1.9924306  15.1630964  36.0273323
   2.4176700  15.6382895  36.7897263   1.7185596  14.3685551  36.5062599
   4.8780875 -37.6584816  -8.9780035   5.0901456 -37.7918053  -9.9719076
   5.3789139 -36.8625450  -8.7384911 -15.9573832  31.6517773 -24.8031082
 -16.8395481  31.8862743 -24.4092274 -16.0000896  30.6597710 -24.7464294
  17.0015621 -20.7883701  28.8584347  16.3689194 -20.7581959  29.6697826
  16.4670753 -20.4388733  28.1741982  -3.9835768   4.1659408  52.5298424
  -4.4932609   4.2748990  53.3562622  -4.7393975   4.0853891  51.8991241
  16.4433956  -4.3395300   4.5482607  15.6445513  -4.8606248   4.2543077
  16.1547318  -4.2146344   5.4999099   3.2127790  19.0406933  25.1207771
   3.7226975  18.3193493  24.7312908   2.4019556  18.5730705  25.3365364
 -22.1923008  -6.1753569  22.0445766 -21.3172512  -5.8856993  21.8978710
 -22.0595779  -7.1043406  22.3284130  39.5783615 -13.0116520 -22.7815704
  39.5656433 -13.7827806 -23.4055767  40.3011589 -13.2957544 -22.2067413
  32.0534096 -25.3284092   9.4116240  32.9272003 -25.3159199   8.9272413
  31.7532902 -26.1838970   9.0413866  -2.7055349  14.4454336  47.1069221
  -2.8480763  13.6764116  47.7397194  -2.3067358  13.8770056  46.3881569
  10.3704624   9.3086681 -28.1162338   9.3872890   9.3142910 -28.2157631
  10.5018721   8.4471416 -28.6930656 -14.9873638   3.7898862  39.6563339
 -14.3964996   3.1138089  39.2679710 -14.2861185   4.4546795  39.8188057
 -25.5631771  36.0636864 -17.2690830 -25.5960217  35.3717575 -16.5224438
 -24.5956116  35.9225616 -17.4689293 -43.7111511   5.4176712 -29.4561653
 -42.7943916   5.3543811 -29.0780506 -43.4451447   5.6680021 -30.3835163
   9.2763414  -8.9490938  16.2661362   9.7474384  -9.8317175  16.4183121
  10.0893955  -8.4192638  15.9591351  -7.3483410  13.9676123  33.5800743
  -6.7842007  13.1894760  33.5202980  -7.2469831  14.3215189  34.4527321
 -36.8998871  18.9110966 -20.4573307 -36.5994759  18.7170429 -21.3868465
 -36.6761932  17.9861431 -20.1049290 -17.7637424 -21.1385632  -0.1582869
 -17.1238632 -20.4213047  -0.2500296 -17.5093422 -21.7650070  -0.8634402
 -16.2247276  37.6964874   7.5887861 -16.6678944  38.4622307   8.0328789
 -16.3374863  38.0837173   6.6527157  -3.3843181  -5.2832985 -43.7976761
  -3.8869681  -5.8172755 -44.4757881  -4.0495753  -4.5608811 -43.6471100
 -33.8197670   6.8790116  16.6681747 -33.7887077   7.6979108  17.2009907
 -33.5970726   7.2844996  15.7771692  -8.4593544 -43.6876259  -6.5283465
  -7.6346407 -43.9707222  -7.0303750  -8.3605032 -42.7238503  -6.4274998
 -13.0075541  22.6959286 -23.4530563 -13.1183395  21.8625927 -22.9973946
 -13.0530043  22.3930435 -24.4346027  26.9421749 -17.8826504   5.8888516
  26.1458340 -17.8735981   6.4791179  27.5983963 -18.2143116   6.5693827
 -35.4163551   7.6558070  14.0768394 -35.3793182   6.9674363  13.3817196
 -35.7463188   8.4167967  13.5256386  27.2785740 -23.3307247  10.2325954
  27.8408794 -23.9627457  10.7481279  26.4647045 -23.2860718  10.7818689
 -10.3188410   1.7849447  42.6336174  -9.6872377   2.5315201  42.5459366
 -11.0822163   2.0613971  42.1536903 -14.8843498 -22.2419853  -3.7431288
 -15.8203516 -22.4936028  -3.5008051 -14.7052498 -21.6187382  -2.9897337
 -17.5300674  28.9410973 -23.2158146 -16.6891174  28.4602566 -23.2169724
 -18.1356621  28.2809696 -23.5520859  36.6637993 -12.4238396 -19.2907352
  37.0341301 -11.6258411 -18.9686356  35.7206383 -12.3639317 -19.0294418
  14.3982515 -26.5771790  -0.6570696  14.6372385 -25.7086544  -1.0424577
  15.1936464 -27.1083641  -0.9952122  23.6068230   4.6132150  -4.3173938
  23.6211452   4.7690821  -5.2598701  23.5453663   3.6529739  -4.2808361
  12.2215767   6.9098411  -4.9027376  11.7817955   6.3874040  -5.6381693
  11.5147095   7.4430408  -4.5895691 -11.2111511   4.7468185  51.6846886
 -12.0217094   5.3231010  51.6155891 -11.5782862   3.9140394  51.2340469
   6.4706154  -3.0582166  23.2359715   7.2708364  -3.2263854  23.7733269
   5.8594666  -2.7422922  23.9783192  31.8589916   6.0979719  15.4496574
  31.6850967   6.4715586  16.3374901  31.3041382   5.3052225  15.3440084
  22.9182053 -10.8104334  47.8611870  22.1761646 -10.3415051  47.4880333
  23.2352848 -11.1759462  46.9461174   7.5748892 -27.7053795   8.6444092
   7.3767529 -28.0467415   9.5546780   8.4348936 -28.1670895   8.5024920
  -9.8575611 -35.7031555 -23.5870800 -10.6272440 -35.0598755 -23.5193386
  -9.1758528 -35.3028564 -23.0764542   8.6962156   5.2173214   7.9363379
   9.3615971   4.5385919   8.0399675   8.1143618   4.7120662   7.2933373
  -3.7508357  30.8459320  16.6028328  -4.4565725  30.7741852  17.2194633
  -3.9718826  31.5906963  16.0166836  26.6009293 -12.2028131   0.6861551
  27.0546989 -11.4198580   1.1002060  26.5864067 -12.7283907   1.5296811
  30.4843788   6.4817777 -36.0851021  30.7265167   7.4223437 -36.1152802
  30.3128471   6.2441158 -37.0018883  -7.0570574  26.8388863  -4.7958241
  -7.7610846  26.4519749  -4.1816416  -7.4177322  26.5517750  -5.6259556
  -6.7181678 -12.8615637   8.2686663  -6.5401754 -13.4037256   7.4608431
  -6.0287452 -13.3196859   8.8684845  39.1099243  -0.8562878 -30.0328178
  38.2241554  -1.1040009 -29.7106895  39.6183472  -0.9304460 -29.2235966
  26.0937786  27.2397861  15.8313236  26.7030430  26.4944935  15.8414307
  25.7919922  27.2943573  16.7303925 -10.1473866  11.1057024  36.0055046
  -9.6441565  10.6074543  36.6279488 -10.8519630  10.5016880  35.6325073
   0.7606474 -12.3702450 -20.2707272   1.0526454 -13.0963850 -19.6453953
  -0.1507889 -12.7444258 -20.4209557  37.5938644  20.0614662  16.5070171
  38.2073097  20.1248474  17.2817307  38.1672325  20.3543282  15.7954903
 -25.9649639 -19.2664356 -25.6270733 -26.9476223 -19.4856262 -25.5797882
 -25.9174290 -19.1301956 -26.5838776 -11.5630178   0.9767790  16.5283661
 -11.8422213   1.3191030  17.4347515 -12.3911886   1.2068011  16.0701141
 -13.6470203  12.5490379 -25.2504749 -13.0645313  13.3011208 -25.5130558
 -13.9392462  12.7631245 -24.4001637 -34.2360802  28.1483517  25.0518475
 -34.8844910  27.6301289  24.4703827 -33.5301971  28.2822323  24.3964386
  13.0014696  -3.9733138 -49.1350441  13.2189512  -3.2359638 -48.5024529
  12.0823593  -3.6313000 -49.3755760 -43.6728554 -21.6970024   5.7165337
 -42.9251404 -22.2840900   5.9542952 -43.2131996 -21.0290680   5.1423984
  21.7191067 -24.1848888 -30.0404778  20.8184891 -23.8089066 -30.3199501
  22.2485504 -23.4131966 -30.2931519 -31.0020638  -5.9396954 -27.6717281
 -31.3982868  -6.7769709 -27.9285107 -31.0156765  -5.9919653 -26.6462460
 -17.6260719  27.1406193   7.7177658 -17.8473587  27.8805542   8.3710051
 -16.7229519  26.9014893   8.0450439 -37.2559738   2.1163068 -26.1906834
 -36.7564392   2.3409722 -27.0006962 -37.2030067   1.0960214 -26.2355061
 -35.2590065   8.5989380 -26.4451160 -35.0771408   8.9767551 -25.5325966
 -36.1936188   8.8836002 -26.5039597  29.7308903 -19.0527420  13.6884394
  30.3078308 -18.2411079  13.4966192  29.8964329 -19.0515213  14.6881027
  23.1803207 -32.8970528 -30.8891430  24.1338692 -32.6353416 -30.8424759
  22.9642391 -32.6514015 -31.7611370   5.0609956   6.1970925  25.7918587
   4.9629798   7.1647792  25.5962429   5.7639823   5.9604053  25.1660748
 -30.2113838   5.3433342   3.1839707 -30.9419708   4.6603079   3.1189885
 -30.3245125   5.7414422   2.3025551 -27.6608753  31.3048096  -1.3696524
 -26.7882214  31.6804428  -1.7298315 -28.1486645  32.1490898  -1.3668817
   4.8383665  24.2570934   3.6377981   5.7216897  24.3695698   4.0438032
   4.4827099  23.4267025   4.0396419  15.7800369  -5.1974535  -5.6779718
  16.3565693  -5.2023878  -4.8765779  15.6677866  -6.1641693  -5.8205948
 -16.3789043 -31.4051685  -7.6916251 -15.4394064 -31.4595165  -7.3534274
 -16.6234074 -32.3021431  -7.5956764 -26.5279388  11.7830667  -4.7407250
 -27.1050014  12.4148550  -5.2684412 -26.1758099  11.2194233  -5.4184570
 -18.0572872  30.1794300 -20.8964272 -17.9250031  31.1563110 -20.8807125
 -17.8252201  29.9595890 -21.7732296 -37.6458893 -24.2719116  11.4245024
 -37.4058266 -24.6071491  10.5521364 -37.7851028 -23.3268852  11.1577034
  -4.7898598 -19.0297012 -16.4021015  -5.4234405 -18.4294033 -16.8601513
  -4.3112493 -18.3275871 -15.8773232  14.4729624 -12.6693878 -30.6393337
  14.3367176 -12.1710215 -29.7547646  15.4778719 -12.7562780 -30.5363998
  10.1353226 -15.9497128  17.5292797   9.7429237 -15.0943737  17.8125076
   9.8254414 -16.5852222  18.2242966 -10.8254433  33.1575851 -33.6810226
 -10.3285170  32.3567848 -33.3852768 -10.1519079  33.6030045 -34.2809601
  -7.2744970  19.7732391  18.9753819  -7.9680033  20.1935139  19.5441647
  -7.7369595  18.9012299  18.7554741 -30.3273182  17.0960827  18.6238308
 -31.1074543  17.4033298  18.0847836 -29.9150658  18.0162487  18.5860920
 -43.0747490   3.5077052  15.8730564 -43.2048264   4.2473006  16.4673367
 -44.0014877   3.2720547  15.6394100   0.8878469   7.1097636  18.4657364
   0.2972090   6.3937330  18.7564945   0.9351339   7.6319356  19.2939491
   1.9182194   3.5676920   9.9123106   1.1480253   3.8461776   9.3485594
   2.5652528   3.2478108   9.2575092  -3.8633823  -4.5913582  38.2201920
  -4.0321946  -4.6959596  37.2424736  -3.9818819  -5.5021815  38.5320816
  21.7279778  29.8734360  -6.1260681  21.3579254  29.6160450  -5.2488370
  21.3272762  29.2836971  -6.7207165 -31.8413372  -7.4818983  12.9887619
 -32.4179344  -7.8179951  12.2918186 -31.0004730  -7.5278158  12.4806271
 -32.9780464 -15.8708000  -6.1079025 -33.2655983 -16.8013840  -6.1930680
 -33.5706940 -15.4354391  -6.7930546  15.5198450  -6.3691854  -1.6430607
  15.6577129  -5.5011888  -2.0282996  16.2939701  -6.8695416  -1.9686568
 -20.2786465  13.0665798   6.6296759 -20.5926533  13.8641100   6.1156421
 -20.9141502  13.1445904   7.3803215 -12.2083950  -4.9121790 -16.8195324
 -12.1480761  -4.4302106 -17.6829109 -13.1843042  -5.0741410 -16.7944965
 -31.1276169  11.8163910 -17.5602207 -30.2753963  11.7377729 -18.0266590
 -31.4644794  12.6720018 -17.9179611  17.2153969 -33.9024658  -4.3664804
  16.6970367 -34.7244148  -4.1633530  18.0284081 -34.3246307  -4.7410569
 -16.8368835 -25.9284878  17.6515751 -16.2557964 -25.7649841  16.8473721
 -17.6029472 -25.3033428  17.4367790  -9.0964499  33.3565407 -24.0232449
  -9.0632982  33.8706703 -24.8316746  -8.2956781  33.6057587 -23.5856113
   8.5617294  19.0356808  29.3588963   9.5040178  19.2270393  29.1822872
   8.3251410  18.6441822  28.4834137 -40.2878227  -2.4164534  14.8320742
 -40.2570229  -3.3031251  15.2359295 -39.3137207  -2.2995110  14.6091728
  33.6150970  32.5713387  -5.3946810  33.2297363  31.9216938  -4.7990317
  32.8837128  33.2446671  -5.5018740  16.0048580  17.6056023 -13.9288177
  16.4026737  16.7581692 -14.2276115  16.1899586  18.1255322 -14.7482882
 -15.4293919  28.1947327  -5.4465632 -16.3120441  28.6330566  -5.3408246
 -15.7759581  27.2915363  -5.6609898  23.4426231 -29.4097691  11.9418974
  24.3715973 -29.2305470  12.3443241  23.5141163 -30.3862152  11.9824152
  31.9590302  10.3077488  27.3613510  32.0656433  10.6527719  26.4287720
  31.0140228  10.6942034  27.5025978 -32.0282364 -13.5516739  -6.5408449
 -31.7054100 -13.3035431  -5.6527276 -32.2463074 -14.5123043  -6.3224216
  20.1648254  24.1382942  26.7911816  19.4510193  24.8343143  26.8159771
  20.8189392  24.6109886  27.3133278   8.3953629  32.8210907  10.1381607
   8.4614916  32.1703568  10.9078588   9.3686409  33.0105362  10.0366316
  10.8266745 -27.4467735  -6.1326022  11.2533550 -28.1538219  -6.6539893
  11.3649397 -27.5985374  -5.3101678 -11.1950197 -27.3277740 -11.5795221
 -10.3897419 -26.8275261 -11.3562069 -11.8277836 -26.5936489 -11.3233175
  11.8844585  39.5502205 -25.8942604  12.6970911  40.1397820 -25.8787098
  12.1440144  38.8660660 -26.5144482  27.6884766  -3.2898529   0.4938519
  27.5141888  -2.3388777   0.2121784  26.8049164  -3.6006057   0.6664000
 -28.5720921 -18.4362774  -0.7583093 -27.9246254 -17.7665100  -0.3032439
 -29.3785667 -18.1736126  -0.3201351  42.9239616  -5.2386174   3.1433861
  42.0714493  -4.8125124   3.1568606  43.1288986  -5.2601233   4.0976338
  -5.4448576  15.0177002 -10.7082167  -4.6711149  14.6107235 -11.1421690
  -6.1608095  14.5222826 -11.1159601  32.9499474   9.8858442  -4.9181499
  32.1499939  10.4471149  -4.7555866  32.5848961   8.9866791  -4.7289600
 -17.1545315 -13.9047394   1.7840345 -18.0114460 -13.4729567   1.8115406
 -16.7887630 -13.5640287   2.6161718  34.0945625  -4.4751153  -1.9014366
  34.9444427  -4.7544107  -1.4635235  34.4931564  -4.2290869  -2.7853198
 -16.7469978  20.9432335 -12.1017809 -16.7261086  21.8262367 -11.7172651
 -15.8856115  20.5465069 -11.8343382 -29.6200714  24.8615055 -23.9266605
 -30.5074997  24.8954678 -23.5903950 -29.7433968  25.3764248 -24.7748566
 -43.6256332  27.0456715 -18.7260590 -43.5177078  27.3216400 -19.6508656
 -44.1771736  26.3184662 -18.7795601   3.5425098  29.7765770 -19.3141575
   4.2352548  29.6868382 -18.6697159   3.9003148  30.4087925 -19.9857063
  31.4678783 -33.7441406  20.8708687  32.4287949 -33.5003242  21.0844841
  31.1725731 -34.0385208  21.7804394 -20.3779221   3.9040306   7.4448953
 -19.4606514   3.7074113   7.6885228 -20.2611141   4.8947425   7.6390443
  -1.4118582 -41.6727028  -8.2439651  -0.5376841 -42.1964874  -8.3102875
  -1.7853338 -42.0980644  -7.4636397  30.3640785 -23.9738884 -10.5260391
  30.9233322 -23.1700554 -10.6678696  29.6113396 -23.7072067 -11.0884991
  27.4448338  -3.0191808 -15.5322094  27.2789459  -3.3880858 -14.6440773
  26.5620403  -3.1517406 -15.9205580  43.8192101   0.7004519 -17.7040615
  43.0500259   0.0825204 -17.8901730  44.1309395   0.4393049 -16.8641281
  29.2432003  18.7700157  26.7563324  29.4956951  19.6093254  27.0816174
  29.1638508  18.2326260  27.5547562 -30.0922832   4.7380686 -26.9509029
 -29.2528191   4.2084270 -27.0913467 -30.6503849   3.9679308 -26.7748299
  38.8698692  -1.4995302   2.7715976  39.2792168  -1.1233206   3.5602679
  38.2967987  -0.7962931   2.4478495  -5.9414601 -12.2116852   1.6808851
  -6.4487844 -13.0263824   1.7054924  -6.1245480 -11.9395075   2.6363564
 -31.7487812  -2.3223860 -26.1935406 -31.3108711  -2.9044399 -25.5028706
 -31.1637058  -1.5340309 -26.1288395 -33.5841942   3.3124828  32.5062485
 -34.0427208   3.6752338  31.7258434 -34.2560310   2.6261482  32.7445221
   1.0212741  23.5737839 -13.1172161   0.9528883  22.6276741 -13.2802486
   0.0892565  23.8118286 -13.2294264 -15.1715345 -35.3297043   9.3431807
 -14.7902679 -35.0035973  10.1513767 -15.2073555 -36.3134270   9.5620184
   9.0758476  39.6563187  12.8815889   9.8498240  39.8029861  13.4465742
   9.3945446  40.0368118  12.0886631 -21.5928135   0.4651329   1.5432756
 -21.6313267  -0.2571861   2.1756423 -22.5340233   0.7883925   1.6836877
  15.1861706 -29.9083290 -31.6243401  14.4030733 -30.2982101 -31.9325123
  15.5065413 -30.6085129 -30.9616184 -25.7528152  10.6672697 -37.5881691
 -25.3896847  10.3779325 -38.4664230 -24.9817905  10.3715763 -37.0211411
  20.0240135  46.2950478   9.3341446  19.3203983  46.8447037   8.9603424
  20.3128376  46.9508705  10.0288601  -0.5759153 -22.8658409 -28.0268707
  -0.4245279 -23.7206612 -28.4821434  -1.2481567 -23.1380825 -27.3733120
 -25.2696419   3.4447775  44.9757881 -24.9496269   3.5141006  44.0377159
 -26.2621498   3.3731308  44.8055038 -25.8414078  -6.4403658  23.3787537
 -25.5597477  -6.0268402  22.5418530 -25.0126362  -6.3260417  23.9258461
 -29.8887501 -33.2278557   9.1223927 -29.0447750 -33.4549751   9.5079508
 -30.3784981 -34.0780182   9.1291370  -0.5445163  27.0973320   7.7720175
  -0.1258354  27.6953316   8.4291992  -0.4766003  26.2283459   8.2074594
  24.5826988 -35.5845375  18.4295197  23.5614815 -35.5674286  18.6896687
  24.7518845 -36.5220871  18.7092819  -5.4654961  -8.4235229  44.0856476
  -5.7753096  -9.1792402  44.6304359  -5.8052907  -7.6365252  44.5274315
 -15.6343098 -24.8667603 -21.8313427 -14.9699488 -25.0600624 -22.4906979
 -15.2343712 -24.0479603 -21.4011211  25.9637928  -9.4929094  -3.3951266
  26.7111588  -9.9991074  -3.0291417  26.2282295  -9.5088587  -4.3697782
  -5.6041489  11.6689587  23.1147442  -5.1943874  12.3537169  23.6780033
  -6.3199987  11.4059162  23.7437897 -31.2016487  26.4061527  29.3637161
 -31.1814518  27.3376522  29.5969219 -32.0554314  26.2961903  28.8905849
 -12.2707243  24.7926521  -0.4764440 -13.1838446  25.1941643  -0.3253930
 -12.5951767  24.1774540  -1.1526612   2.6459496   6.9766855 -30.6892452
   3.4783862   6.5854783 -30.8094559   2.1423507   6.2054029 -30.3894558
  31.6624184 -25.4162312 -12.5201874  31.1746941 -24.6475544 -12.1216602
  30.9605274 -25.7819500 -13.0451765   7.9800506   7.8629837  11.8782549
   8.2580662   8.6058674  12.5041523   7.0599279   8.2266655  11.7748394
  42.0671120  24.8178883 -21.2670841  41.9432793  25.4383163 -20.4942188
  41.5013733  24.0531120 -20.9570808 -12.5457067  33.8287773 -20.7794323
 -13.0950851  34.6367340 -20.9244633 -12.9505224  33.5378151 -19.9279137
  43.0026474 -16.4119644 -26.1591492  43.7978516 -16.9351292 -26.2053661
  43.1936798 -15.7935152 -26.9195843 -22.7241211 -37.9741631 -10.6012516
 -22.9941597 -37.0557213 -10.3022251 -22.4008579 -37.7409058 -11.4682436
 -17.5592098  37.0365257 -23.3926563 -17.8685055  36.5400696 -22.5796089
 -17.7048016  37.9556808 -23.1161842 -35.8556023 -37.8096046  11.1479740
 -36.0420799 -36.8413887  11.3639765 -35.6009178 -37.7396202  10.2079811
 -20.8463593  20.3390732  12.5381441 -20.6907215  20.0184498  11.6694975
 -19.9741459  20.7183609  12.7480106  38.6071091  25.3494587   6.0084963
  38.6334496  24.4712353   6.4411016  39.1496887  25.9244823   6.5721512
 -30.6767197   7.8528442  -5.5761151 -30.6707535   8.8784609  -5.5404730
 -31.3986073   7.6647091  -4.9163394  17.3261948  35.3503571 -13.3686514
  17.6810513  34.4119530 -13.4787254  17.0083332  35.4885292 -14.3189402
  16.6079216  -9.3965311  13.9815922  16.7022591  -9.4233742  14.9687777
  15.6962051  -9.8056011  13.9453344  -3.5618000   8.8719978   7.2245317
  -3.0632308   8.0818005   7.4470768  -2.8974638   9.4915295   6.9475808
 -19.1120892 -21.1432438   2.2737520 -18.7789116 -21.0707798   1.3490634
 -18.3735752 -20.8702335   2.8437071  22.6621017 -32.4277229 -25.2498264
  21.9384937 -32.6281013 -24.6239471  23.2712917 -31.9879379 -24.6063957
 -22.7587719  -4.3479629  14.0115595 -23.0956154  -5.0704589  13.4075317
 -21.7616215  -4.4674807  13.8894444 -28.3593769  -4.3340812  36.1010132
 -28.6654148  -4.9933405  36.7354774 -29.0143490  -3.6283724  36.1760712
  33.3517723  -0.8456357 -24.3808498  32.6931686  -1.3950925 -24.9103508
  32.8665123  -0.8044207 -23.4929066   9.6825342 -16.6574974  36.3920937
   8.9134426 -17.2586098  36.4316025   9.6089735 -16.3166370  35.5156708
  10.4000959  -0.2554639  49.4234810  10.0184870   0.2975898  50.0947571
   9.9825449   0.1997746  48.6268806 -24.6133537 -31.5515499   2.4277446
 -25.0630913 -31.4325504   1.5666882 -24.8671532 -30.6727161   2.8108242
 -35.8420563 -25.2416019  -2.0925586 -35.4114876 -25.1799717  -2.9535060
 -36.1031418 -24.3108406  -1.9036198 -23.7551613  -1.8473144  -0.7153990
 -24.3319702  -1.5385716   0.0244206 -24.4162312  -1.9304705  -1.4523377
  -2.2826464 -39.8182869   2.4241307  -2.4429901 -40.8082504   2.3840320
  -3.1925466 -39.5709152   2.6335464  43.0238037  -6.8547969  25.6600685
  43.7754059  -7.4345574  25.4008732  43.4442711  -6.0681958  26.0471668
 -43.4439812  17.2330322  -9.7030144 -44.2160492  17.2639256 -10.4209843
 -43.9449844  17.7739983  -9.0447607  10.0199709 -13.5858717  43.0392990
   9.8598900 -13.6138983  42.0720100  10.8311396 -13.0516882  43.0456696
  -5.4836283  13.6333475 -30.3156300  -5.8966160  12.8578053 -30.8372555
  -4.7691603  13.7448959 -30.9369526   1.4708244  21.1726055  12.9730463
   1.7341431  20.4057999  13.4154921   1.7151884  21.8299465  13.6445742
 -19.9833717 -12.0096083  26.1734314 -20.8092766 -11.9696493  26.6928997
 -19.4411373 -12.5597239  26.7992382 -21.4751740  -3.5781510 -11.7795725
 -22.1753120  -3.7576246 -11.1034937 -21.4366436  -4.3313861 -12.3316650
 -13.3459663   1.2729604  41.8456001 -13.6207571   1.0282488  40.9489250
 -14.2151747   1.7334015  42.1268845  -8.4760466  24.4353657 -14.1244040
  -7.9253473  23.6180477 -14.2325945  -8.5172520  24.7320004 -14.9822197
  27.8042107 -26.2766285  -8.6509027  27.4132824 -25.7097683  -7.9629102
  27.3716927 -25.8645344  -9.4458447   8.9367075 -10.6677914  41.6628876
   9.5435638 -11.2661324  41.2767792   8.4017391 -10.3770437  40.8568192
  21.6523170  -6.8470283  10.0719690  21.0456409  -7.1043410  10.8089323
  22.4291935  -7.3830743  10.3368292  16.6927757  -9.4666319  34.4765320
  15.8630600  -9.0186052  34.5057068  16.4600391 -10.3781796  34.7138214
  13.3636160 -17.1006889 -44.7029037  13.9994755 -17.0211735 -43.9317970
  13.9322691 -17.3993950 -45.4227562 -25.9188309 -11.4903526   7.7787085
 -25.2618656 -10.8840170   8.1944323 -26.5922241 -10.8535528   7.4330187
  -2.6712804  16.2186871   1.2912848  -2.7181644  15.9285908   2.2420459
  -3.2623062  16.9766426   1.3864144   4.9346929  26.2242355 -25.8760662
   5.0125346  25.2813568 -26.1831799   5.6858072  26.0872631 -25.1935024
  -7.9754338  42.9336967  -1.5292560  -7.7688718  43.8908081  -1.5064868
  -8.8784971  42.9834366  -1.1110095 -38.8080711   3.8028328  37.2409172
 -37.8687248   3.8866258  37.5765343 -38.5263939   4.0151157  36.2894745
  25.6769123   1.9250997  -7.3646116  25.4292164   1.8002672  -8.2960157
  26.4687862   1.3287410  -7.3074470  31.2416267 -15.1496172 -22.9267082
  31.7628613 -15.9479780 -23.2083931  31.3747578 -14.6822071 -23.7812729
 -13.5765839  -4.7351594  10.3855267 -12.9146461  -4.9632726   9.7049322
 -13.1230946  -4.8677340  11.2183323  17.0081577 -20.9062462  15.3409185
  17.8804665 -20.4901752  15.4530497  16.7212811 -21.0507355  16.2518139
 -24.9115353   5.5475307  14.0215921 -24.6477890   5.5693221  14.9618225
 -25.7671585   5.9792237  14.0710573   4.1082091 -24.8911495  -9.1119061
   4.9452381 -24.8232040  -9.5595856   4.2543468 -25.5314064  -8.3788900
 -10.9595413 -13.6035261  33.5806198 -10.5965719 -12.8039436  33.0870934
 -11.0303040 -14.2211456  32.8133850  33.9629555 -23.2921524 -17.2774792
  33.4009857 -23.8909817 -17.7921295  34.1602898 -22.5987320 -17.9447880
 -15.2750845   5.7808075 -12.4773846 -16.2114239   5.6911917 -12.7396479
 -14.9326982   4.8634353 -12.7172422  34.9515953 -24.4567375   5.2486010
  35.4865875 -24.9546471   4.6231804  34.0424843 -24.6775074   4.9525623
 -20.2319794  12.7688656   3.1503184 -19.9289112  13.6817837   3.2407324
 -21.1797962  12.8880444   2.9124672 -35.2607994   3.0905724  22.0696087
 -35.6973991   2.3223093  22.4316921 -34.6646957   3.3240955  22.8061733
  -5.3925667  22.1153774 -18.1673336  -4.6001387  22.0341263 -18.7248611
  -5.0798140  22.8573971 -17.5716858  25.8943501  20.0634670 -26.3976860
  25.5362377  19.5285854 -27.0702972  26.8912582  19.7316647 -26.4361534
  -5.8049479  19.0635357   6.5781150  -4.8682623  19.3340302   6.4152341
  -5.7281752  18.1764278   6.0905876   8.1569023 -16.0498905 -13.9296217
   8.5429220 -16.6063786 -14.6387596   7.2065129 -16.1788864 -14.2214375
  -9.1022367 -31.3924866  12.4448843  -8.5468998 -30.8728600  13.0247211
  -9.9444971 -31.5131874  12.9347534 -13.1492662  -7.4296622  32.6080208
 -12.3328514  -6.8732781  32.6453362 -12.8444300  -8.1261435  32.0465927
 -12.0789242  31.0776539  -0.7997028 -12.4664984  30.1949024  -0.6342952
 -11.3591375  30.9072323  -1.4203014  26.7753468  -3.2361042 -36.0872879
  26.5330696  -4.1660047 -35.7836838  27.5390434  -3.0639906 -35.5056915
  -0.6273575  35.7688637  21.7423935  -1.1706132  36.2378578  22.4332485
  -1.3400408  35.6719627  21.0535240 -39.3314018 -13.7509241  -9.8094482
 -38.6590919 -14.2749567  -9.3163280 -39.2385674 -12.9178362  -9.2950802
   0.5680473  26.3565578 -37.4866486   0.6042578  27.3407555 -37.6197548
  -0.3325204  26.3455334 -36.9638786 -27.1533756  28.4180412 -21.3326454
 -26.4380341  28.7886066 -20.8088932 -27.4201527  29.2104950 -21.8575726
  -4.0932341   0.1059350 -48.7464333  -3.2092168   0.5104334 -48.7827682
  -4.1498337  -0.2322795 -49.6634979   0.8641263  25.0182724  35.0992279
   0.4878860  25.6812344  35.7158470  -0.0303784  24.6047935  34.7374992
  10.4786320  -8.2623711  42.6689262   9.8146372  -8.9762306  42.5089226
  10.8035898  -8.1661158  41.7539825  -1.5133498   2.4841788   5.6889334
  -2.5371194   2.4983172   5.9876924  -1.7085993   2.7460444   4.7517128
  18.9115181 -38.9405556  13.9902296  18.2071209 -38.5591469  14.5685940
  18.4135456 -39.7206802  13.6777363 -27.4791145   5.1429348   8.2382030
 -28.4936390   5.0983357   8.1630268 -27.2768822   5.3329577   7.3211665
 -25.2338371  33.9803085   4.3174572 -25.3143616  34.9306450   4.2802525
 -25.7586422  33.8537979   5.1673961  16.4015579  23.8127880 -16.6741142
  16.4895020  23.3762589 -17.4762573  16.3460178  23.0722580 -16.0206604
  -1.9264647  -2.6962531 -11.1062660  -2.0110741  -2.7648318 -10.0840578
  -1.7982022  -3.6734521 -11.2909412  -3.5120835 -21.4993687  11.0344305
  -3.1309385 -21.4886208  11.8911238  -3.8629596 -20.6110592  10.9060946
   9.8861074 -39.0629082   8.3417320  10.3239784 -39.7458725   7.7964993
   9.5342159 -39.6092262   9.0892487   6.2599564 -19.1601257 -28.7176571
   5.7053146 -18.7153511 -29.3797626   5.7336836 -18.9046211 -27.9410400
  30.3753357 -11.3041363  -7.1650262  29.6055088 -11.0519056  -7.7817864
  30.0893536 -10.9430456  -6.3344073 -16.1203213 -27.4413185 -18.5144100
 -16.4233131 -26.5254288 -18.5107422 -15.2869053 -27.3714962 -17.9980564
   3.5418780  -4.4453077  34.9883308   3.3886197  -3.5399265  34.7544060
   3.1430657  -4.4374008  35.8917656  23.2596264  14.5541992  34.1716843
  22.4044762  15.0434780  34.0461655  23.3305607  14.1016941  33.2822418
  -8.0140266  -5.2905450  29.5229759  -8.0988379  -5.9901352  30.1742287
  -8.8680754  -4.9461994  29.3882732 -22.4849377 -29.8459530 -11.4070263
 -22.3943348 -30.5865688 -12.0179958 -23.2201767 -30.1570911 -10.8221388
 -43.5924683  29.6623325  13.9107075 -43.8689537  30.4899845  14.3618622
 -42.8334427  29.9925003  13.3585138  24.2881794 -16.8536892  35.0930443
  24.1687298 -16.4881573  34.1943130  25.2195759 -16.6034317  35.2697258
 -11.9418926   0.3718843 -15.6100588 -12.6840200   0.0086907 -15.0769262
 -12.4352579   0.5940484 -16.4329662 -20.4690266  26.2827377  27.2974472
 -19.7902050  26.8351879  27.6920052 -20.9967060  26.9521618  26.8089790
  19.2533455  23.1331043 -22.6898785  18.5930653  23.2132912 -23.4315243
  19.5524883  24.1159019 -22.7344875 -25.2984047  34.1272278  16.4649582
 -24.7932014  33.5172577  17.0259857 -26.1662350  34.1681824  16.8582783
  38.6079254  13.0252447  14.8933182  38.9441681  12.9058008  15.8652792
  37.6951256  13.3169928  15.2204895 -10.7504721 -45.0877609  23.3226013
  -9.7660189 -45.0430107  23.1164436 -10.9902191 -44.3084259  22.7617474
 -42.1037865  -6.0935464 -11.8549118 -41.9497871  -5.4970822 -12.5691681
 -42.6137352  -6.8135014 -12.2284622  -0.7588440  36.5798569   6.2709985
  -0.0932511  37.3809242   6.3141832  -0.5379107  36.1978149   7.1251221
  42.1517296  -0.5886896  -7.1918092  42.4237213   0.3390289  -7.3091946
  42.0450096  -0.5884581  -6.2116380  -5.6671505 -35.0808411 -20.6952763
  -6.1806002 -35.5823059 -20.0523338  -5.4158998 -34.2980881 -20.1605778
  22.4231682 -33.5567513  13.8454351  21.5217381 -33.4186554  14.1045046
  22.9253235 -33.4825211  14.7288265  14.7935133  44.5119400  11.8531561
  15.0340729  45.2415886  11.2534075  13.8355684  44.6259422  11.9466190
   2.3838537   1.8726913  34.0053520   2.3937771   2.6612294  33.4756355
   1.4318432   1.6837626  34.0268059 -12.9355497 -48.2390556 -20.5782490
 -12.2619753 -47.6002731 -20.9114571 -13.6119051 -47.5900230 -20.2044563
  17.4710617  16.4155769  10.0000916  18.3474674  16.9139252  10.0951605
  17.8242664  15.5293789   9.7111340  -7.7524214  39.1704292 -11.9609327
  -7.0732412  39.7908440 -11.6170015  -7.2155323  38.4746971 -12.3506966
  35.4709854   5.1542902  20.1513958  36.0262489   5.8683085  19.8904533
  34.6358032   5.3278036  19.6773262  43.3424454  -5.2857261   5.8298202
  43.3237076  -6.0614100   6.4720745  44.2313271  -4.9400940   6.1508322
  12.0280876  38.4375458  26.3057423  11.1628170  38.6347771  26.5350037
  12.0260763  37.9509621  25.4463272  22.3303738  30.8938389 -14.0230274
  21.4791260  30.5223560 -14.1140099  22.8238125  30.5081654 -14.7531424
  35.3143730  17.8159542 -24.2515450  35.1657333  18.0845280 -23.3259792
  34.4241982  18.0381489 -24.6170788   9.7970209 -31.8620739  16.4684200
  10.0669193 -32.6821098  16.9275627   8.9871807 -32.0961838  16.0794449
 -29.7351952  -8.1843271 -18.3553066 -30.6183929  -7.7557077 -18.6117134
 -29.4350128  -8.3847227 -19.2715988   2.7834821  43.9864693   0.0931145
   2.3303900  44.2929001   0.9280865   2.3373575  44.5614357  -0.5525731
 -11.2323179 -13.9937630 -11.2484093 -11.8796597 -14.7027731 -11.6243935
 -11.6533756 -13.1711302 -11.5173168 -22.4080696   7.8036566  49.1733971
 -22.2463017   6.8988714  49.4255142 -22.5889854   8.2343082  50.0671768
  -7.9334583  -7.5935040   9.5776606  -7.7058072  -6.9872818  10.2994871
  -8.5177765  -7.0385189   9.0686626 -25.0074482   3.8668211  39.7769203
 -25.0335369   3.8170905  38.8236465 -24.6181564   4.8327756  39.8331757
  28.6884270  36.3334351   4.0444689  27.9766521  35.8162041   3.6680603
  28.2496376  36.7677155   4.8008633 -23.4984741  11.9045229 -23.2819843
 -23.6085129  11.4474602 -22.4268703 -24.1275063  11.3548241 -23.8225727
  -3.2358379  18.9480457   5.7931581  -3.1790810  18.2109604   6.4481635
  -2.3777361  18.8942070   5.4061441  -7.3801155 -45.7359276 -13.7944593
  -6.8173704 -45.6388855 -14.6105309  -6.8385005 -45.2140884 -13.1596270
  -9.7504406  19.2190189  26.5676212  -9.4231939  18.5217304  26.0041275
  -8.9310541  19.3814774  27.1203289  16.0714474 -23.1992054  -7.9436893
  15.1804562 -23.0511589  -8.4089384  16.3791771 -22.2160873  -8.1550817
 -13.1084309 -49.2602997  15.5368605 -13.6087637 -48.9272308  16.3007603
 -12.2277069 -48.9587173  15.8572407 -24.3582592   1.9872655 -13.3741426
 -24.5989704   2.9419813 -13.4459143 -23.5010395   1.9655050 -13.8308277
   5.6415420  17.9164524  -6.9150739   4.8071785  17.8850880  -6.3966994
   5.9838905  17.0377083  -6.7622604  -3.1736410  10.3524208  45.1829262
  -4.0433297  10.8615332  45.1250992  -2.5737531  11.0904989  44.9861565
  -0.4547623 -29.0991211  32.6226349  -0.1806349 -29.2275352  31.6802864
  -0.1099140 -28.2201881  32.8074188  38.1761475  -2.5872490  10.8122110
  38.6493073  -2.8097129  11.6557360  37.2665291  -2.4421439  11.0760632
   2.1926522 -40.2854004 -12.1667442   1.9376239 -39.5048523 -12.7469053
   1.5538306 -40.1065331 -11.4374809  14.2799635  -4.2894645  10.9104214
  13.4027510  -4.2565789  10.4933567  14.0510359  -4.6996555  11.7715263
  10.6600800 -27.4797668 -39.5152054  11.0310507 -27.1455631 -40.3867340
  10.0832415 -26.6673470 -39.3513603  34.5534897 -20.3124676  -8.5585470
  34.7119408 -20.1896038  -7.5904531  33.6599731 -19.9872189  -8.6498270
 -23.7930222  -3.4181790 -28.2282677 -23.0740700  -3.3507450 -27.5428295
 -23.5509701  -4.3875504 -28.5527077  23.7288475  44.6478920  -8.5299435
  23.9916115  45.3245583  -9.2339182  23.5102577  45.2601013  -7.8036513
  15.6218109   5.4932580  40.8370056  16.1582241   6.0429559  40.2071724
  15.7335615   4.6449509  40.3607063 -18.7537422  25.8909760 -19.8438225
 -19.6774235  25.8092728 -19.7096767 -18.4971790  26.2055264 -18.9837494
 -14.0394220  -9.9735308 -10.1066914 -14.5709257 -10.7839537  -9.9256334
 -14.6659279  -9.2865705  -9.8598156  18.7901573  -2.3212531 -12.3262253
  18.5049210  -1.5624423 -11.8143368  18.7087040  -3.0290225 -11.7059813
 -13.7252102  20.0920467 -25.4705620 -13.5310822  20.9086742 -25.9676285
 -12.9640064  19.5861912 -25.8135757  33.9879494  17.9446087 -21.4495983
  33.0395050  18.2069225 -21.3794212  33.9113541  16.9335251 -21.3548508
  43.1537933  -3.3718348 -26.2690811  43.6064835  -2.6917353 -26.8402767
  43.6901703  -3.2537003 -25.4395790  26.0656071 -33.8065453   8.5943928
  27.0046501 -34.1377945   8.5490446  26.1298256 -33.0472527   7.9935966
  13.4747505 -38.2728615 -16.2708969  12.5045204 -38.3554649 -16.0842781
  13.4706535 -37.4209290 -16.7571373 -20.8799400  38.1434669 -20.0339413
 -19.8598785  38.2481346 -19.9607353 -20.8963013  37.2110710 -19.7458076
  18.5941544   2.9152164  -7.2390604  19.1276016   2.4745884  -6.5850854
  17.6923599   2.5204434  -7.0783844  38.4919586  -1.2883793  38.7470360
  38.5557365  -2.2547348  38.4310989  37.7031059  -1.0775927  38.2043724
  -6.9976153 -33.3825569  -6.0734959  -7.3001823 -34.2043152  -5.6484189
  -7.7708564 -32.8155937  -6.1331263 -28.8987198 -12.2104788 -10.1569977
 -29.3427315 -13.0030537  -9.6898794 -28.2779636 -11.9689465  -9.4116344
 -10.9169712 -31.2090721 -22.3294106 -11.6159735 -31.8628426 -22.1470261
 -11.2077045 -30.9161167 -23.2210636   0.3219321  15.0782433   7.4352942
  -0.5186602  14.6387911   7.0488620   0.0870716  14.8024817   8.3715334
 -18.2161732  -6.4782505  -4.1419454 -17.5100727  -6.8957090  -3.6870930
 -17.8392868  -6.3986392  -5.0777755 -19.6909962  -8.7687969  37.4021225
 -19.8410721  -8.5059853  36.4667397 -18.9396477  -8.2206097  37.6419983
  13.4186506 -35.9119415  24.1410942  12.7581425 -36.5018768  24.6133976
  12.8668070 -35.1765251  23.7989159  14.5339298  25.6326180  23.6538792
  15.4833746  25.7088890  23.3644466  14.1032419  26.0872707  22.8924160
 -39.5913925  10.1195383  33.5599442 -38.8705330  10.0815067  32.8634148
 -39.0496864  10.0666151  34.4042892  25.6769390 -21.6064720  15.9340630
  25.4756451 -22.0588741  15.0806723  24.8975601 -21.7869110  16.4478054
   0.1478761 -16.9826851  -7.8734345  -0.7257072 -17.3444118  -8.0388985
   0.1545271 -17.0886784  -6.8579965 -33.7064781  -2.6566594  22.5313911
 -33.9506340  -3.2743876  21.8051395 -33.0426369  -3.2243793  23.0202408
  25.9112701 -25.0324974  17.0034237  25.2030354 -24.3662033  17.0350037
  26.1066437 -25.0970039  17.9263897 -22.1841869 -14.0117064  16.4149132
 -22.3650913 -14.6225672  15.6877031 -21.4763775 -13.5189352  16.0894833
   8.6934919 -21.6651993   5.9787674   8.7767229 -22.6155605   5.7212071
   7.9516363 -21.6839828   6.6079946 -12.0529852  -8.1041651 -27.0037003
 -12.4017553  -8.9758902 -26.7509212 -12.7173243  -7.8636642 -27.6939240
 -44.0129318 -19.2245731 -23.3754559 -44.3948326 -19.8742085 -24.0020809
 -44.8724251 -18.9909382 -22.9284306  31.7466087   1.7406747 -20.5028400
  30.9799995   2.0402958 -19.9581165  31.9888973   2.6198275 -20.9130630
  11.6792431  -2.1069283  -5.2662311  11.7644014  -1.1509458  -5.4803109
  12.5689039  -2.4173419  -5.5358109 -17.5663338 -19.4016094 -30.1266327
 -17.1217442 -20.2836342 -30.1236439 -17.8626633 -19.4192734 -29.1455383
   7.4572334   6.0814190 -17.2580471   6.8564286   5.8134923 -16.5369816
   8.1137905   5.3752146 -17.2542305  -4.3806624 -11.1709957  13.4182787
  -4.9088974 -11.9511957  13.7270985  -3.9688785 -10.8976059  14.2795029
  34.2534828   2.6743369 -28.6839714  34.3206177   3.6290145 -28.8314896
  34.4876823   2.3790376 -29.5678997  17.4011364  -0.8492560 -31.9590092
  17.3979530   0.1668344 -31.9132366  17.9117165  -0.8710424 -32.8532639
  -9.4264193  17.3947487 -19.7557564  -9.4569654  17.1826134 -20.6813126
 -10.3741093  17.1121655 -19.4787312  -8.1396008 -38.6038589  -8.2655993
  -8.9481564 -39.1392746  -8.1525517  -8.1272449 -38.1365891  -7.4276242
  21.9187222  15.5965128 -19.1189213  22.1980724  16.4765892 -19.4488411
  20.9484825  15.7325888 -19.3827648  20.1023216  -7.6870584  40.7935791
  19.9909077  -6.9280782  40.2676888  19.2520599  -8.1576710  40.7167625
  34.2851372 -25.0792732   7.9132009  34.9531403 -25.7803555   8.0394726
  34.4730835 -24.8440685   6.9931159  14.4501505 -23.7844906 -15.7669163
  15.1368589 -23.1194992 -16.0109673  14.0178537 -23.2642517 -15.0297890
   4.8534636 -10.1904163  37.6107025   4.1069169  -9.5726547  37.7460556
   5.0721788 -10.3478699  38.5375137  18.0174522  -0.3386783  39.7113609
  17.1231861   0.0712593  39.4722862  18.2831726   0.3080260  40.3385658
  -7.9855580   2.2662208 -49.3145332  -7.2649579   2.3784125 -48.6480026
  -7.5162845   2.3269014 -50.1740799   3.0896542  -0.8323468  32.8608856
   2.9268591   0.1491870  32.9699631   2.1966503  -1.1379631  32.7636948
   0.8460038 -35.8813972   5.5794630   1.5070673 -35.1898804   5.3983140
   0.3633133 -35.5166435   6.3164048  36.2519531 -13.2503328  35.0238914
  36.8355865 -13.7425413  34.3891373  36.1111832 -12.4449339  34.4453087
 -14.1148472   4.9254293 -46.2383423 -14.5032835   4.2830205 -45.6161423
 -14.9211302   5.3917155 -46.5753708  13.0398865 -18.8741035  37.5040054
  13.5033474 -18.1673355  37.9965248  13.5128832 -19.6878319  37.9362564
 -22.8760014 -20.2689018  -9.6573792 -23.0661526 -19.5161476  -9.0050840
 -23.6851921 -20.7941341  -9.4721270 -38.3322601 -23.4869385  18.2846680
 -37.6735229 -23.9866695  17.6964073 -38.9314499 -24.1978397  18.4882698
  30.1044579   3.1386859 -18.8758354  29.9925308   4.1071296 -18.8298855
  29.2718964   2.9263339 -19.3302021  25.7727947  -5.6867700 -35.3145714
  25.8452148  -6.6038728 -35.0660210  25.1949959  -5.6563182 -36.0632477
 -41.4510002   3.7412446 -33.6439857 -41.6725769   4.5472565 -33.1803856
 -41.3477211   4.1658096 -34.5597343  25.0983276 -13.6869869  35.0488014
  24.9131222 -14.0325689  35.9899979  25.8050594 -14.3365135  34.8816032
  39.7004929  -1.2900203  -8.9106989  40.1168671  -0.4560146  -9.1311035
  38.7757454  -1.0877172  -9.1790628  17.4916344  -6.5556011 -40.3517227
  17.4293156  -5.6551347 -39.9434052  18.4615402  -6.5753779 -40.5711327
  24.6398869 -36.5125923 -24.7630100  23.7898865 -36.6454735 -25.0516834
  24.9125633 -35.6850777 -25.1652851  33.3974762   3.7687521  -6.9402170
  32.7198143   4.4128809  -6.6716237  34.1104088   3.9960926  -6.2783141
 -27.6983681  -2.5774770  31.2013950 -27.9666348  -2.9234147  30.3299751
 -28.5665207  -2.3823137  31.5733738  14.4874554 -13.7737169  -0.8455464
  14.3964005 -14.6153259  -1.3640705  13.7495584 -13.9546051  -0.1885377
 -19.7367306  35.4456177  23.3371792 -20.3873348  36.1529465  23.5924454
 -19.5659161  35.6839256  22.4183693  38.3643646  21.5140152   2.4194069
  37.9101105  20.8700161   1.8576918  37.7840462  22.3122044   2.2647116
  36.3453827  11.7331877  -0.6358939  37.2917213  11.5049810  -0.6580713
  36.1753883  11.8319368   0.3006651  23.8448486  36.2729301 -21.3234921
  23.7089901  35.3367233 -21.0545597  23.6261826  36.7066917 -20.4756680
 -29.2338581   2.6346869  41.4762115 -30.0185604   3.1795650  41.1456108
 -29.7054939   1.8742359  41.8237610 -19.4014969  33.4947395 -11.1297817
 -19.6713696  34.1308517 -10.4022541 -19.2274189  34.1952782 -11.8362350
 -26.5882339   7.4041038  18.3800793 -26.4054699   8.1260309  17.7301083
 -25.9234219   7.4821148  19.0236969  40.4292259 -12.5312443 -15.8755302
  40.1557350 -11.7757006 -16.3652973  39.7086716 -12.6215906 -15.1692600
 -22.3574619  10.8308792  30.0846577 -23.1128025  10.6742220  29.5301743
 -22.2120590   9.8974648  30.4120770  24.1005154  22.0960293   1.7659352
  24.2773132  21.9475651   2.7235937  23.1580372  22.3610935   1.8049988
   6.7140636  -7.1583114 -33.0586624   6.3980598  -6.3008175 -33.4122505
   7.6939106  -7.0369687 -32.9898911  13.4315891  11.8813963  -6.4076872
  12.4888735  11.5792322  -6.2072082  13.7112770  11.7190380  -5.4143071
   7.3132849 -13.9731998   7.4714584   8.0814981 -14.3666477   7.9525390
   7.0289779 -14.6898842   6.9636097  19.1292839   2.3427370  27.2356987
  20.0727310   2.0386949  27.2072849  18.9290771   2.3136446  26.2856770
  13.4521208  -5.1493998  41.8145142  13.7019539  -5.7208748  41.0529633
  12.8378344  -4.5586958  41.3586388 -29.5586700 -14.8153191   3.0896952
 -30.5319290 -15.0200882   3.0346546 -29.6153126 -14.1989975   3.8905370
  -3.9102898   4.3963203  31.2433434  -4.1765475   4.0318570  32.0694199
  -2.9782190   4.0372620  31.1861553  12.6833830   0.5716684  -0.4329515
  13.5612698   0.3074281  -0.7074676  12.1718140  -0.0958014  -0.9098850
  37.1789474 -20.5144901  -4.1821961  37.3083763 -21.3328171  -3.6442380
  38.0026588 -20.0811367  -3.9739020   8.5023899  22.1843872 -18.2367344
   8.1160011  21.3016644 -18.5665359   9.4272642  21.8644791 -18.0893936
  25.8954678   6.7850695 -26.3385353  26.2650795   7.5858459 -25.8081684
  26.4304161   6.9599414 -27.1662140  22.7716980  -9.2212114 -11.5013475
  22.3490639  -9.9687614 -10.9829721  22.1812859  -8.4829788 -11.3405991
  -3.2022293  11.8704157  -5.1577492  -3.6772838  11.9319344  -6.0115881
  -3.6977150  12.5792589  -4.6713872 -27.6972351   4.3966675 -20.7429199
 -27.2361050   5.3136797 -20.7633209 -27.9276390   4.2957878 -21.6520863
  15.5541830   7.6000581  12.1707306  15.9158602   8.2495604  11.5633955
  15.0378847   6.9905453  11.5768623  -6.7510004  -3.9768653 -18.8094978
  -6.1643190  -4.6058125 -18.3508835  -7.4880910  -3.9943957 -18.1147118
 -22.4920235 -29.5122910   6.2998424 -23.1644268 -29.5526257   6.9298859
 -21.8205471 -28.9492207   6.7724500  -6.4524479 -25.1844559  34.6154671
  -6.9389920 -25.8511372  35.1215286  -6.1898398 -25.7465000  33.8646431
  -2.8195357  42.0155487   2.3119030  -1.8872244  42.2698860   2.0450370
  -2.6038141  41.9723663   3.3543584 -17.7349529  23.4998207  -0.5904676
 -16.9912090  23.4931755  -1.2568234 -17.2316589  23.2286835   0.2330563
  31.7462215 -23.6489410  24.6473827  32.5350037 -24.1765194  24.8182621
  31.6744518 -23.2585564  25.6249352  -2.8423297  -3.1220002 -19.9544373
  -3.3681874  -3.9300570 -19.7109604  -3.1588521  -2.9817259 -20.8765373
 -42.8866196  24.5477066  22.8634930 -42.3848305  23.7018967  22.8118591
 -42.9725380  24.6849880  21.8932457  31.2466660  22.0967960  -3.8970463
  30.8201923  22.0834408  -4.8464231  31.2013741  21.1150208  -3.7045028
  15.8092928  38.2834663 -17.0425129  15.4011345  39.1509933 -17.2218456
  16.5985813  38.5420761 -16.5039845  37.7206497 -20.3742886  28.0518188
  38.6787338 -20.6855087  28.1987476  37.2611160 -21.1025639  28.5319214
  -0.0341051  38.5460091   3.0292211   0.0493786  37.8002625   2.4249732
   0.3190887  38.1023636   3.8343973  16.0189037 -33.8757820  38.9283562
  16.6017838 -33.5178680  38.2057266  15.3809938 -34.3692017  38.3720818
 -23.8319759  22.3233242 -16.0858746 -23.0700588  22.2899113 -15.5070620
 -24.0204773  23.3001976 -16.0128117  21.1770496   6.6078382 -25.6837692
  22.1724586   6.7650299 -25.8717918  21.0309048   5.9452529 -26.4354839
  33.9922638 -11.7073927   2.5920658  33.9439545 -12.0275764   3.4959955
  33.0425148 -11.7720737   2.3820014 -21.3043346  25.7400894   1.5690340
 -22.0805206  25.8674278   1.0172298 -20.9716930  26.6647816   1.5348648
   5.2875023 -25.0301285  37.6168785   6.1895289 -25.3766136  37.5030746
   5.4505429 -24.4502373  38.4174995 -20.1016769 -16.2198658 -11.0257969
 -19.8059959 -16.4521008 -10.1226549 -20.6205635 -15.4241791 -10.8707180
 -16.1317921  23.0655689  -4.5346713 -15.6690130  22.3097744  -4.9018188
 -17.0638695  22.6688271  -4.5795598 -26.5201168  35.4442558  13.5759373
 -26.6950970  36.2199783  14.1399012 -27.1185150  35.7781372  12.7856007
  15.3357258  11.4136333 -12.9012527  15.4780645  11.4120283 -11.9078560
  16.2786388  11.4076042 -13.1397371  16.4496326 -33.7910461 -22.7034054
  15.9935808 -34.4606934 -22.2464695  17.4369602 -33.9590645 -22.5175686
 -31.9124546 -20.9933567   9.4281673 -32.4831009 -20.3783646   9.0414782
 -31.8919163 -21.7504807   8.8283615  35.7862434  34.7814980  14.2415018
  36.4210510  35.5412865  14.0805244  36.0141678  34.1704979  13.5608759
  21.3295116  39.0479736  -3.1339371  21.9757843  39.2146950  -3.8515704
  21.8004646  38.3533401  -2.6586878  -5.8967404 -27.2966728  -5.3888063
  -5.8903875 -26.8482494  -6.2695112  -5.2316246 -27.9820747  -5.5543509
 -10.9516764  11.5151615 -36.8448334 -10.0880337  11.4899817 -37.3081245
 -11.1401491  10.4883804 -36.9897461  18.7725620   3.1479478  20.0913620
  18.7827873   2.3816638  19.4555283  19.1495056   2.6516395  20.8240833
 -20.8557224 -17.2038765  31.9109840 -20.5763283 -16.4130764  32.4748878
 -20.8444386 -17.9347115  32.5557137 -38.9651527  17.0922146   1.0942614
 -38.8959084  17.3159275   0.1307968 -38.0312119  17.1516266   1.3355336
   6.0419173  32.8177834   0.1568225   5.3972373  33.6208229  -0.0125539
   5.7926030  32.2887650  -0.6315812  26.3030567   5.9642243 -34.1507797
  25.6067219   5.8719931 -34.7654419  26.9298592   6.6187959 -34.5490494
  33.9200058 -25.2651806  24.6100483  34.3577003 -26.0135517  25.0614338
  34.1259003 -25.4949799  23.6574192   3.3339744   5.4366617   5.2999005
   3.3513758   6.3627868   5.6497436   4.2882252   5.3346267   5.0505543
  -7.6282644  -0.5294260  27.6778984  -7.7928977  -1.3596771  28.2295609
  -7.4994140   0.0535974  28.4777412 -34.7808037  11.2967777   5.1082807
 -35.4643669  11.3680096   5.7584767 -33.9910965  11.2921543   5.7248878
  15.0820026 -31.1124439  38.4620399  15.5014114 -31.9547424  38.4835739
  15.6939659 -30.6387119  39.0741005   1.8604058  -2.6434643 -33.4673882
   2.2356727  -3.2546244 -34.1700935   0.8832489  -2.6740561 -33.7389488
 -32.6871109  -4.1623583  24.5872955 -32.0247421  -4.3062620  25.3712387
 -32.7994308  -5.1071458  24.3709850 -14.6784172  -3.0328410  19.5724201
 -13.7689390  -3.1881926  20.0785103 -15.1563969  -3.6984129  20.0187740
  12.9295216  -8.4955263  22.9025612  12.8752232  -8.4600391  21.9277534
  13.4831343  -9.3140869  23.0477238  41.2572746  21.0854988  -1.7414308
  40.9963074  21.9810467  -1.4501532  40.7830544  21.0424099  -2.5964928
 -41.4344864   6.5851727 -28.3197002 -41.1965675   7.0274673 -27.5511894
 -40.9129639   7.0463877 -29.0043964  32.6721802 -14.1575680   0.3655310
  32.4420700 -13.5956774   1.1278825  31.8767796 -13.9635220  -0.2148264
   7.6205282  39.0155182 -17.3042431   7.8561101  39.2848244 -18.1792049
   7.2739048  38.0987740 -17.4932766 -11.0834036  -6.7890143 -22.5448513
 -10.7935781  -6.9591460 -23.4734192 -10.4099531  -6.1481080 -22.3059826
  41.0407486  -8.8232813 -21.1644592  41.9610367  -8.3822384 -21.2191086
  40.9543343  -9.0784025 -22.1122837  24.0541687 -15.0351467  -3.9339674
  24.1597672 -15.9839125  -4.1723042  24.7814236 -14.7112284  -4.5112281
 -32.3405190   3.2011161  10.5924921 -31.9974308   4.1382828  10.6360350
 -33.0762177   3.3250775   9.9230404  -5.4294295  11.6995487  45.3197021
  -6.0589929  11.3263168  44.6614380  -5.5953546  12.6727524  45.1902237
  14.0778141  38.7900276  18.5205765  14.3153229  39.7370415  18.7310543
  14.1742859  38.8089104  17.5630398 -36.0970421  25.9478664  16.6737347
 -35.4203148  25.5386677  16.0125904 -36.4769020  26.5967979  16.0783501
  18.4157925 -21.4517078 -41.4335556  18.7432671 -22.1640778 -42.0466309
  18.7736454 -21.8638058 -40.5638161  23.4024067  -0.2537414  17.9140224
  23.7200584  -1.2132919  17.8029709  23.4198151  -0.2144236  18.9296455
  21.3020668  10.4951353 -22.8890247  22.1500969  10.2856264 -23.3251266
  20.7566395   9.7983541 -23.3178577   7.1539516 -31.3772869 -23.1635742
   7.3924351 -31.9694805 -23.9375896   6.2243385 -31.1628418 -23.4013309
  -0.2661798  24.2718143  25.5752544  -0.1909243  23.2967968  25.4335594
  -1.2054443  24.3982925  25.2542419  24.3327847 -28.3497467  29.7470894
  23.7188835 -29.0284634  30.1654358  24.4299831 -28.9392414  28.9137611
 -11.4902620  -9.5278616   5.4179363 -11.6539621  -9.2381334   6.2977552
 -11.2824078  -8.6774530   4.9794822  -8.8709917  36.4374084   5.4351907
  -8.1832304  36.5382652   6.1559277  -9.5988312  36.0665550   5.9929295
  20.3166351  34.8202057 -15.0020638  19.6191540  34.5957565 -14.2875576
  20.4381428  33.9449806 -15.3651342  24.6576710  -6.2271791 -41.3513870
  23.7527008  -6.3286738 -41.6923332  24.5415058  -6.5763984 -40.4025879
  24.7725620   5.4948425  25.9936237  25.0701752   4.9760594  25.1853790
  24.7969398   6.3855472  25.7290802 -10.7799788 -26.2313614 -33.1763802
 -10.9611835 -26.3212719 -34.1598434 -11.6827230 -26.4378319 -32.8304901
 -11.2933435  39.4204445  16.8235760 -10.4672375  39.5999527  17.3155651
 -11.8505955  40.1364555  17.1358013  21.5721493 -36.2659111  18.5286140
  21.6986008 -37.2141724  18.6233101  20.6103535 -36.2787666  18.7742653
 -14.7774630 -15.5754881   9.3894634 -14.4476938 -14.6768160   9.1545830
 -14.9491959 -15.9590616   8.5473671  -2.2513607  27.9326820  17.8914261
  -1.9482852  27.4674206  18.7228012  -3.1727901  27.7238426  17.8680115
  36.1075287 -25.3557587   2.9953618  35.6370049 -25.0975094   2.1931713
  36.9585419 -24.8782749   2.9247890 -29.9927235 -38.4729195   7.0372887
 -30.8637772 -38.8664894   7.2282906 -30.2072029 -37.8597527   6.3142366
 -17.8364220 -15.5697565 -24.8798618 -17.7882576 -15.6188946 -25.8717232
 -18.7859459 -15.6935539 -24.7236614  22.3850422  27.8136616  27.5936947
  23.0079536  27.0351105  27.6695690  21.7196903  27.5450058  28.2732811
 -24.7216167  18.5991535 -29.6652222 -25.1076431  18.0475197 -28.9148235
 -25.4938087  18.7273140 -30.2012749 -19.4405441 -22.7731819 -12.6928120
 -18.9336720 -23.0038376 -13.4690971 -19.8599167 -21.9179211 -13.0161219
 -38.0435181 -12.7757959  20.4326305 -37.2514229 -13.3534660  20.4429035
 -38.6722412 -13.4962711  20.2441177  26.4920197  14.6887474   0.4342546
  26.0876026  15.3477287   1.0612383  26.1128616  15.0971756  -0.4037915
  13.2603884  -0.0621332  -6.3872480  13.6302452   0.3410333  -5.5859461
  12.7480974   0.7158549  -6.6902747  31.8373737   2.0692313  25.1949406
  31.3478870   2.2107394  24.3586578  31.7982578   3.0238519  25.5252514
 -11.0031137  37.5146370   3.4974570 -11.0907078  37.1122704   4.3775101
 -11.2849321  38.4274483   3.6574862  12.2209196  31.1919804  -2.9251328
  12.2063103  32.1360512  -3.1692193  12.2575788  30.7590294  -3.7469971
 -34.3961601   6.8371849  24.4018040 -33.6801338   6.3537188  23.8568096
 -35.1963081   6.3224077  24.1704216  26.6515026  37.3056641  -2.9724145
  27.0624523  38.1027756  -3.3761885  26.6968269  36.6889267  -3.7384152
  27.2769966  -8.1597548  -0.2330316  27.6603642  -8.8479786  -0.8324274
  26.4415073  -8.5427990  -0.0122276  31.7673664 -11.4660320 -26.8262482
  31.6906815 -10.8086462 -26.0631275  32.7216148 -11.6634054 -26.7288094
  -1.9898399  35.7408257   1.9631026  -2.1421647  35.9512100   1.0023311
  -1.0109310  35.7920303   1.9389795  -0.2457148 -40.3018036   8.4987383
  -0.3424238 -40.2565536   7.4903488   0.7613688 -40.2170486   8.4860458
  17.2650585 -12.3631115  -4.3996730  16.3781891 -12.7486258  -4.6319528
  16.9835129 -11.9709196  -3.5349874  31.8398895  11.1947899   3.5134289
  32.6334457  11.3429670   4.0106392  32.0445557  11.7674570   2.7184107
  12.5608826  23.9854813  24.4477634  13.3083277  24.6087532  24.1951618
  11.7816200  24.5299206  24.1940651  30.7284336  10.0705318 -14.8388128
  30.3126793   9.2089510 -14.5884352  30.8444061  10.5087233 -13.9760370
  -6.2303314   1.7533516 -30.0060272  -5.3700013   1.7547762 -30.5072918
  -5.9821706   2.3429930 -29.2794075   9.4685650 -14.0516634  -1.5022347
   8.6601372 -14.5258951  -1.6761206   9.1193628 -13.1330910  -1.4401777
 -16.6806850   0.8535150  34.2700729 -17.0757847   0.6858420  33.4011078
 -15.7977018   1.2827179  34.0430717 -39.9767609 -15.4811239 -20.5370483
 -40.7514839 -15.3715487 -20.9956112 -39.4108124 -14.6911182 -20.7250938
  11.2259808 -10.4162893 -30.6504726  10.7103519 -10.1350040 -31.4427757
  12.0839901  -9.9868679 -30.9511566 -35.4288750   7.6165323  21.0803928
 -35.4669342   6.6551900  20.9382019 -35.6420135   7.9454393  20.1211967
 -17.3549156   5.5486193 -37.0652504 -17.5549774   4.9933534 -36.2535095
 -17.3522263   4.8397789 -37.7264748 -36.9482727  -3.4872251 -27.1217537
 -36.2434387  -4.1138263 -26.8322315 -36.5725250  -3.1587262 -27.9544506
 -38.7203293 -17.3896866 -18.3250713 -39.0748825 -17.2299786 -19.1890717
 -37.8209763 -17.0510235 -18.4934292   5.2923336  -6.1805353  51.3957481
   5.1685266  -6.2083335  50.4163818   5.9845104  -5.4691486  51.4976463
  -1.5745339  19.4963818 -21.1552048  -0.9866961  20.0883656 -21.6278267
  -1.7749498  20.0078869 -20.3645630 -10.7101355  13.5548496  35.2532806
 -11.6875525  13.4815807  35.1829491 -10.4829006  12.6356430  35.5274773
  -4.7903972 -31.9956169  12.6670151  -4.6965942 -32.0540047  11.7273455
  -4.7075930 -31.0091572  12.8398600  -3.5874527  24.4797859   8.5470638
  -2.7077305  24.8632088   8.3911610  -3.9691923  25.0666904   9.2015057
 -18.5758781  18.5215988  41.5671844 -18.7730656  17.6178188  41.2054024
 -18.0416889  18.2014599  42.3408546 -30.0121613  30.1875591  14.4355869
 -29.9642429  30.1643276  13.4463940 -30.9904842  29.9567108  14.5693464
 -12.2104235 -17.0834579  34.5909576 -11.4168739 -16.8320637  34.0424843
 -12.6092491 -17.7659378  34.0489540  -2.2849686 -23.1945801 -18.0874157
  -2.7992001 -22.4214706 -17.6909561  -3.1372364 -23.6949940 -18.4055138
  25.5755386   4.4125648  -2.0007217  24.9857674   4.4644117  -2.7342851
  26.1657543   3.6573713  -2.2037320   0.7576416  36.6888084 -10.9864359
   0.6461605  36.5364380 -10.0284634   1.6958697  36.9939461 -10.9629622
   7.0483875  34.3341103  18.9354515   6.2666955  34.3991776  18.3022099
   6.8374910  35.1753044  19.4489441 -34.7327957 -11.3127794  26.7949371
 -35.0626106 -10.3888941  27.0714378 -33.7836609 -11.1927881  26.8496895
  17.6193428 -25.7427063  28.8605633  17.0368328 -25.1223640  29.3232727
  17.6446381 -25.3645668  28.0013599  -0.9674610  40.4587936 -23.3867226
  -1.3560088  40.8564568 -24.1632195  -0.0362191  40.3601875 -23.7137012
  42.0688667  -2.9485157  15.0115309  41.7504883  -3.2119129  15.8832827
  41.6978149  -1.9953245  15.0029259  -5.9011416 -36.8502655  -6.6211696
  -5.6790986 -37.2992363  -7.4645391  -6.8025908 -37.2302895  -6.4648747
  21.3843098  22.6647320   1.8356982  20.7034492  22.6880016   2.5045345
  21.1248283  21.8538742   1.2857279 -28.5701523   7.0334778  44.9285698
 -28.4911442   6.2768936  44.3154068 -28.3084564   7.8149137  44.4143372
  35.0043678  -8.7431421   7.6838012  34.1426620  -8.2963963   7.9971242
  35.3614197  -7.9738603   7.1372724  32.6584778 -30.3748493  17.3333817
  32.0859756 -29.6981220  17.7469177  31.9470558 -30.9564991  17.0315075
  33.8474541 -24.4528008 -13.3556690  33.3151627 -23.6265144 -13.6657686
  33.1414909 -24.8873177 -12.8140984 -18.1176872  -7.8164659 -23.5859337
 -17.4056320  -7.8685312 -24.2882023 -18.3563690  -8.8157358 -23.5906887
  -4.7320666  37.3496017   1.2203727  -4.0136495  37.9465408   1.4935145
  -5.3632460  37.4081573   1.9550569  12.7060890  16.7674561  29.7805614
  13.1270437  17.4356403  29.1796608  13.3122644  16.8323956  30.5487652
  11.6007366  -5.9815922 -29.3480453  10.9835129  -5.8017740 -30.0651646
  12.1696424  -5.2491846 -29.3656693  -2.5546451   4.1862006 -24.3816891
  -2.0494690   3.3928738 -24.0279884  -3.4555218   3.7785416 -24.2936192
  31.9367752  31.0149593  10.8603811  31.4854679  31.0741615   9.9839993
  32.0320091  31.9866047  11.0176001 -17.2329140  35.1778755   7.9114981
 -16.5625248  34.6641235   7.5079570 -16.9762745  36.0778236   7.9314799
  -9.4678192 -28.3341293 -24.0103130 -10.3363638 -27.9423122 -24.1620998
  -9.6559496 -28.6812458 -23.0395336  21.2321930 -22.1210022   7.7763181
  21.7253380 -21.3321667   7.6711917  21.6864510 -22.7932949   7.1943989
 -28.7362251 -37.3198280  -3.5048113 -28.7991619 -38.3182106  -3.2790999
 -27.8064137 -37.1929741  -3.3322670   7.2304702 -44.6072884  13.6875782
   6.3917637 -45.0242157  13.5761366   7.1528244 -44.1374359  14.4839220
 -32.7408791  34.0731583  20.4408665 -32.8294601  33.2203865  20.8706951
 -31.8671246  34.3131027  20.6337204  -9.2869434  28.3739491 -41.2659149
  -8.4988346  28.6259727 -40.8000870  -9.9366493  28.2163277 -40.5740280
 -43.7013741  13.8306971  11.2805567 -44.6393814  14.0599298  11.2585897
 -43.3502235  14.5157013  11.8662596  -0.0912992  46.1072426  27.0712643
   0.0774122  47.0678596  26.9391327   0.8025981  45.7568970  26.9531097
 -11.3028374  14.6655712   2.0740848 -11.5321589  15.6412249   1.8537048
 -12.2705545  14.4283981   2.2877398  16.0365257  19.7528858 -18.7693462
  15.4967728  20.0711765 -18.0250473  15.9562206  20.3999825 -19.4838009
  18.5470600 -26.2735329 -27.4081116  19.4045944 -25.9986649 -27.6225548
  18.7127991 -27.2278080 -27.0287685  22.0977135  -8.2804890 -25.1190910
  22.2550259  -9.2080860 -25.4105663  22.4713573  -7.8157811 -25.8640881
  -2.6253080  24.7224941  24.6102524  -3.1519954  24.6809158  23.7884159
  -2.7937608  23.8772640  25.0189819 -39.1234055   5.7829118  -3.0583856
 -39.5866470   5.3355207  -2.2930961 -39.8655853   6.1650944  -3.5444818
 -40.9601974  25.8034019 -12.1415701 -41.6820717  26.3643913 -11.8074064
 -40.3898582  26.5189400 -12.5531406  20.6157551 -33.7655029 -14.0730572
  21.5321999 -34.1284256 -13.7931118  20.1455250 -34.6071815 -14.1470070
  -3.3084412  28.8651981   0.4347720  -3.7190034  29.7732601   0.4830968
  -2.6903813  28.9714336   1.1568367 -19.8986626  11.6716719   0.3671370
 -20.3679619  11.1765471  -0.2620239 -20.5028191  11.6848564   1.1362207
 -31.5092564 -11.5939989  -4.6078234 -31.3042603 -11.1841326  -3.7511809
 -30.6089935 -11.5552855  -5.0459375  -0.6583468  12.8766623 -34.2822418
  -0.0547544  12.4031696 -33.7080574  -1.4580318  12.8535042 -33.8075447
  20.9856968 -25.5893688 -27.8527050  21.2656403 -25.1090527 -28.6958351
  21.5759945 -26.4431324 -27.9510593 -14.9093103  23.4802361  32.8986473
 -15.6466646  24.0222263  33.2256851 -14.2164822  24.1767769  32.8200912
  -8.6465578 -20.4412842 -16.1179657  -9.2298546 -21.2187481 -15.8274050
  -8.0065689 -20.4091358 -15.4566813 -25.6249180  23.3068466  28.7884121
 -26.4294491  22.9383640  28.4410954 -25.7932224  24.2086563  29.0461254
 -32.4449539  11.1011133 -37.3865547 -33.1612244  11.4487514 -36.7827034
 -31.7928143  11.8327589 -37.2598457  -4.0194631 -20.1638355   5.5151076
  -4.6475873 -20.1510181   4.8057389  -4.5080104 -20.4230499   6.3042064
 -32.5827103  -2.3823364  18.1643772 -31.6182938  -2.3332655  18.3221931
 -32.8279762  -1.4074872  18.1226978  41.5555611  -9.9985485  21.4354172
  41.0227699  -9.2542667  21.6534519  42.0033035  -9.6698055  20.6304188
   3.8234022  -8.9082842 -13.4786472   3.1149559  -9.1968765 -14.0054016
   4.0745912  -9.5971079 -12.8623505  -2.0949891   8.8715782  24.2279282
  -1.5863240   8.0580254  24.0813637  -2.4665763   8.7200270  25.1396141
  42.6538773  16.7236328  17.1046352  42.5096588  15.7646675  17.0968590
  43.5689430  16.7008419  17.3843117 -36.8036423  18.4249821 -14.0319643
 -37.5699615  19.0297012 -14.0465689 -37.1685600  17.7637100 -13.4070387
 -23.4654007   5.4058771 -19.1270428 -22.6860752   5.9608774 -19.0673885
 -23.2244949   4.8371820 -19.9079704 -34.9805794  -6.0858545 -35.3468475
 -35.7361870  -5.4924359 -35.0647659 -35.0172539  -5.9979811 -36.3181038
 -28.5007229   9.3407593  15.5239153 -29.1189384  10.0990868  15.5845556
 -29.1174297   8.6183615  15.7740202 -28.1442680 -14.5887728  15.0168419
 -27.5157471 -14.8293858  14.2782316 -27.6381989 -14.9995632  15.7907743
  -7.5397539  -4.1442533  42.1187706  -7.9171262  -4.7472711  42.7387428
  -8.0020561  -4.3016748  41.2915421 -31.3170376   5.0607767 -29.6121082
 -31.6382580   5.9581909 -29.5821323 -30.3405037   5.2102313 -29.4856453
   7.0096154  -7.0882320 -37.3131104   7.1590099  -6.8013597 -38.1917267
   7.8064866  -6.6913710 -36.8645973  -7.8861194 -43.5026398 -18.2828598
  -8.2771397 -44.3541718 -18.1610584  -8.7299185 -43.0072289 -18.5249386
 -41.0346718  21.8231392   2.4934278 -40.8809433  20.8658314   2.4954960
 -41.7802849  21.8418350   1.8625940  -0.1383364  14.8095732 -36.1905365
  -0.3057371  13.9819698 -35.6697693   0.0419023  14.4348841 -37.0841789
 -37.6219711  -0.7971687  -8.3311148 -36.7299652  -1.2278187  -8.1619949
 -37.8910904  -0.8356378  -7.4012475 -17.9563503  21.1833630 -30.7849998
 -18.8764668  21.4138737 -30.5140648 -18.0601349  20.3058643 -31.2094193
  18.7580929  10.2023277   8.6668501  19.3993912   9.7107782   9.1495371
  18.3991127  10.7847252   9.3520679 -12.2706413 -40.5852585  -5.4710140
 -11.4142113 -40.6490364  -4.9734926 -12.5564060 -39.6868172  -5.3028054
  18.5364895 -15.1542835  33.1809387  19.0593128 -14.7895651  33.9237823
  19.2996254 -15.2068224  32.5120277  -6.9001827  12.0113077  -6.4049873
  -6.4013081  12.6209097  -6.9607706  -6.4889441  11.2010345  -6.5877395
 -18.8414555  27.8364887  39.2226791 -19.5340939  28.4834995  39.3573494
 -18.0418739  28.3971004  39.1210403   5.7052641 -36.0990982 -35.6710548
   5.3171921 -35.5342522 -36.4179955   6.1219964 -35.3103867 -35.1246643
 -20.5428200  17.0897942 -40.2561989 -21.3965435  16.7553768 -40.6097145
 -20.6872082  16.9528484 -39.3024216   3.8803022  38.9482880  21.9167042
   3.6080477  39.2327156  21.0424366   3.0840375  39.0040054  22.4471798
  -6.5406303 -24.1506329   6.6564789  -6.9595680 -24.8456879   6.1383843
  -7.0323195 -24.1722412   7.4737568  -8.2446928  -0.5815336   9.5419970
  -8.2188368  -1.2847637   8.8131189  -8.0022116   0.2248553   9.0631657
  -4.7515726  29.1630249  13.7684612  -4.5115771  29.0342579  14.6920872
  -5.5832329  28.5760975  13.7192430 -24.7436295   3.4094961 -34.9562645
 -24.7052135   3.8144424 -35.8380165 -23.7670403   3.4059670 -34.6977501
 -39.2331734 -12.3310747  -5.8371706 -40.0450783 -12.1745005  -5.3306046
 -38.6125031 -11.9254007  -5.1644120  36.1244965  23.0924397 -13.8167458
  35.2060432  22.9775505 -14.1083965  36.4604416  23.7565479 -14.4346771
  18.8436775  -5.3749685  26.9512539  19.6189861  -5.7512574  26.5380993
  18.9867001  -4.3893070  26.7810211 -11.1392555 -14.5802040 -14.6487827
 -11.7834921 -14.9843702 -13.9603634 -11.6828480 -13.8151979 -14.9132986
 -31.9701138 -29.4168148  -2.9993510 -32.7916908 -29.5750332  -3.6025159
 -32.0485954 -28.4247303  -2.9281025 -10.3705692  10.4911718 -40.6872711
 -10.3495913  10.3129559 -39.7408028  -9.5477362  11.0534658 -40.7464218
 -38.2374840  27.4517403  23.6859131 -37.7458916  26.6219654  23.7322445
 -38.8591423  27.2933331  24.4010277  -9.5156326  41.9490471  28.3411026
 -10.5240784  42.0454292  28.2948151  -9.4621887  41.3389130  29.0943165
  24.1233578  -2.1876082  -0.7209372  24.7214813  -1.8644317  -0.0221077
  23.2722530  -2.1119838  -0.2603294  -5.0928159  11.2603703  26.9318962
  -5.9792056  11.3943319  26.5853729  -4.9547877  10.3435040  26.7426090
   6.8794112  34.4999352 -22.7470207   6.3649774  33.8308792 -23.3081017
   7.1736040  35.0970192 -23.3851357  -7.9999552  31.7162647   2.7864685
  -8.6270208  32.1241226   2.1132987  -7.1482239  32.1443481   2.5155840
  16.1103077   2.0944753  43.4390526  16.8216782   1.8759865  42.7896500
  16.0462418   1.2664099  43.9192886 -11.6481771  12.9472437 -48.5576401
 -10.9981527  12.2142038 -48.7372780 -11.1363344  13.7423954 -48.8882141
  40.3293839   2.8143692  23.1591702  40.6801109   2.9169080  24.0959873
  40.2653618   3.7320447  22.9405651  13.2782202   6.1758623  34.7107773
  12.5539646   5.6793861  34.2222328  13.2358189   6.9975257  34.1381302
  19.4595509  11.0060892  -6.5156484  19.6095867  10.8907995  -7.4813128
  19.6792927  11.9008017  -6.3972602 -33.9938660  -1.3305202  -9.0285492
 -34.3908119  -2.0086548  -8.4041710 -34.2734718  -1.8384938  -9.8786402
 -21.6812019  -3.8173342  -3.0397055 -22.1293907  -4.4311204  -2.4398768
 -20.7015285  -4.0732703  -2.8672020 -10.0844297  20.0714417 -24.4210663
 -10.0231876  20.3319130 -23.4620228 -10.6262674  19.2579575 -24.2730274
   3.7636201 -13.0415735 -19.9586697   4.5600858 -13.2052670 -19.5076218
   3.4300525 -13.8494034 -20.3323479 -25.5638409  23.3499813  33.4898949
 -25.3182011  23.0449409  32.6036758 -24.7592278  23.7741642  33.8159065
  -2.5025752  -9.9120932 -20.7130184  -2.2459588  -9.0983973 -21.2159138
  -2.5810001 -10.5779247 -21.4126740   9.5850639   6.8246365  25.2214737
   9.5002041   7.7139521  25.6261101  10.4837837   6.7949681  24.9801579
  13.6387424  44.7078743 -20.3620605  14.0745068  44.7989616 -21.2378292
  14.2385082  44.0643387 -19.9321918 -42.1378250  24.1597252 -14.0436583
 -41.2964439  24.3694096 -14.5647697 -41.8208389  24.6378803 -13.2274761
  34.6867676   5.1475677 -29.6444149  35.0544586   5.4861569 -30.4998055
  33.7481079   5.3894839 -29.8284264  12.9424314  -8.6678028  11.7372723
  12.8000965  -9.5520134  11.3126879  12.3197041  -8.1047840  11.1743164
  -9.3824186  10.7468128 -20.1827793  -9.4075499  10.0770140 -19.4682541
  -8.4030790  10.8814259 -20.2870045   2.7757142   9.5176754 -33.4728241
   3.5114448   9.1076794 -34.0120506   2.7899728   8.9067230 -32.6686134
  -9.4653025 -17.9988556  23.8481293  -9.8250523 -18.7301083  23.2931938
  -8.9217892 -17.5077782  23.1837902 -10.0660305   8.6331606  47.6979713
  -9.4634171   8.1357136  48.3367386  -9.7676430   8.1874294  46.8541908
  13.9154634  -8.4649324  20.2688961  13.3474045  -8.0239010  19.6529675
  13.7016535  -9.3844194  20.1586342  33.0405006  10.4555635  31.8074665
  33.0421677  10.7137690  32.7610130  32.1150055  10.1475449  31.7184563
  -9.9645233  15.0881481  39.4348145 -10.9038601  14.8907995  39.2299232
  -9.4958563  14.6102142  38.7334251  10.1313744  21.0615158 -29.3280334
  10.8330317  21.1734505 -29.9698296  10.2312946  21.8531265 -28.7501564
 -10.6530819  -6.3467040 -40.5958481 -10.4154539  -5.6088781 -41.1499710
 -10.3895082  -7.1487517 -41.0554047 -43.4539948   3.5836384 -22.7515430
 -44.3195648   3.5917103 -22.2152824 -43.0562325   4.3842268 -22.4856739
  39.1609688   6.9059238   3.2530684  40.0561752   6.5212030   3.2522819
  38.6441040   6.1215816   3.0339131  -5.5897593   0.2244622  43.4371071
  -5.8664465   0.6543849  44.2918358  -6.3487639   0.4904433  42.8581009
  -0.1538572  -1.5968491 -42.7326012  -0.6599844  -1.7754307 -43.6178093
  -0.5380149  -0.6779445 -42.6332016 -30.2095089  31.9906960 -15.6381969
 -30.8602333  31.9218197 -16.4632816 -30.3367786  32.9370537 -15.4857836
 -15.2306747  23.3916035   5.1150937 -15.5753508  22.5728874   5.4582806
 -14.8927898  23.7992172   6.0057974   4.5250831  35.2870903  -0.1028034
   4.1128864  35.1668243   0.7878578   3.8243182  35.7581406  -0.6002019
   1.5142435  22.0292034  26.8294353   2.2378886  22.3675861  27.4255867
   1.9607062  22.0691547  25.9695759 -12.6688910  12.5019388 -20.8294544
 -11.8478680  13.0269003 -20.7966557 -12.8072262  12.3569164 -19.8715248
 -25.7012787  17.2995853 -27.6210155 -25.7127895  18.0895176 -27.0391808
 -25.6019306  16.6557636 -26.8775368  -6.4652228  22.5137939   4.7142529
  -6.7022362  21.7543297   5.2733936  -6.1517472  23.1213398   5.4272585
  31.8073349 -19.9467010  -5.0413756  32.1729622 -19.9567604  -4.1516004
  32.5615044 -20.4838295  -5.5085297  22.8685493  34.2285652   4.5979991
  23.0720348  33.2732086   4.3260546  21.9056664  34.1967926   4.4423985
 -10.1320715  23.7836666  31.1468430  -9.8283310  23.6022358  30.2213783
  -9.3065777  24.1560764  31.5216732  36.5277901   0.7465949 -27.4491539
  36.6094627   0.3822085 -28.3895664  35.6625175   1.1785657 -27.5139694
  28.0133209 -18.5785904 -35.2921944  28.9656029 -18.9492874 -35.0487061
  27.6022224 -19.1624050 -34.5363731  -2.3601935  -2.7544866 -38.0513153
  -1.7598115  -3.1195931 -38.7549324  -3.2454906  -2.7061925 -38.4855423
 -17.5032768  39.8514366 -23.0652370 -17.5545597  40.7790184 -23.2817822
 -17.7548733  39.9039650 -22.0803871   1.2494670  38.3677711  10.1103697
   1.3392402  39.1142654   9.5076036   0.7464697  38.8030586  10.8380365
  13.2428789   3.6874256   3.2711058  13.0960522   4.0928879   4.1310120
  13.0582790   2.7427256   3.4852436  35.7636719  15.7642765 -27.6186028
  35.2286072  16.1148663 -28.3771935  35.6979713  14.7689400 -27.8852711
  11.8574038  18.8588276  33.8714180  11.2918119  18.4915047  33.1503372
  11.6703577  19.8607063  33.7893372  12.1653986 -14.7807121  45.0351181
  11.9469061 -13.8359900  44.9899368  12.8018389 -14.7441120  45.8043900
 -41.9695511   7.0647302 -20.0065269 -41.2692451   6.3992114 -19.8537960
 -42.6992874   6.7713871 -19.3817120  33.6093330 -16.6208839 -33.8125954
  34.1395988 -16.3131313 -33.0400772  34.1735153 -17.2825756 -34.2271156
  -9.6590242  -4.6009774   4.7410889  -9.0732145  -3.9004722   5.1005487
  -9.9778404  -4.0738053   3.9352310 -14.7553825  21.1955662  12.5982676
 -14.9396839  21.3508282  11.6346436 -13.8175926  20.8756561  12.5576172
  34.0005913  15.9959908  17.7163525  34.3739967  16.0636349  16.8175659
  33.4911385  16.8197308  17.7791004 -13.7953434  13.6368570 -50.3552208
 -14.3776131  14.2590294 -49.7751541 -13.2216148  13.3100500 -49.6136932
 -20.7895985 -26.0107079  18.9556999 -20.4829350 -25.1219501  18.9246845
 -21.5475712 -25.9800377  18.3463860  -6.8990688  17.6469402 -13.8915148
  -6.5877423  17.9044743 -14.7889576  -7.6457143  17.0248795 -14.1780691
  29.4207897 -12.2482395  35.9165916  28.8408222 -12.5816736  36.6477661
  30.1185989 -12.9520836  35.8598251  -4.6106834  18.2128944  -7.0671172
  -4.9572911  17.4337597  -6.5944929  -5.2194848  18.9044762  -6.7302847
  11.7488527 -32.6424179  31.7128067  11.0959806 -33.2239342  31.3140812
  12.5950642 -33.0569496  31.4038239 -34.6172104   0.1067660   9.9722395
 -35.2454948   0.8999951  10.0961189 -34.3600426   0.2530008   9.0533190
   6.8316078  23.3437843   9.3514099   6.4399819  24.1860332   9.0348253
   6.8941379  22.8095112   8.5925503 -30.1854210 -36.7328339 -17.2408867
 -30.4476814 -37.6492081 -17.0509338 -30.1642399 -36.7009430 -18.2247391
  34.5644608   1.8952699 -24.7330475  35.2380791   1.1861774 -24.5977821
  33.7855644   1.4537617 -24.4238873 -24.3587914   9.3306255  36.1781845
 -24.2732105  10.1064529  36.7572746 -23.3465176   9.2133694  36.0740280
  -0.2464544 -22.2314663  29.3577137  -0.5755398 -22.4912052  28.4775066
  -0.2284011 -23.1039448  29.8137856  -6.2738237  38.7698631 -20.1357460
  -7.2600865  38.7575188 -20.0679855  -6.0608211  38.4955215 -19.2282505
 -37.5389061 -13.2503462 -28.7867851 -38.3633041 -12.9021959 -28.3437309
 -37.4230156 -12.5202284 -29.4393234  11.8033695  15.0522423  33.2762947
  11.4990053  15.8116217  32.6883850  10.9422283  14.5282402  33.2643547
 -15.0655231 -21.6998348  11.2251968 -15.4972506 -22.0564823  10.4579554
 -14.3322144 -21.1179447  10.7877808 -16.7992630  29.3232822  38.2562218
 -16.6219120  29.3144341  39.2677689 -16.7197762  30.3488846  38.1979294
  20.5084362  38.5527420   6.4086304  20.0040131  39.3954163   6.4874649
  19.7352486  37.9139900   6.6391811  30.7233257  10.0442476  15.1703939
  30.6465855  10.0729303  16.1975250  31.5632782   9.4981880  15.0977430
 -11.8057108  -5.6613398  42.8899574 -12.1791220  -6.4734769  43.3171539
 -11.5013390  -5.1482630  43.6456528 -33.7741051  12.8804808 -35.6237602
 -34.0061340  13.3694534 -36.4474220 -33.5904160  13.6081266 -35.0125160
  12.5069399   7.8963628  17.8711815  12.3801870   7.7366347  18.8019428
  13.3986254   7.6081595  17.6899109 -29.2150517 -37.5202484   0.1451582
 -29.0352936 -38.5342293   0.0583980 -30.0308952 -37.5999832   0.7165129
 -19.3293724  -6.1192112  40.7345238 -20.2039280  -6.1979146  40.3825378
 -19.0245285  -5.2461200  40.3448715 -14.1192846  26.8840580 -12.2284164
 -13.3308945  27.3752613 -11.8850889 -14.7840252  27.0917568 -11.5236340
  -6.0378184  20.1948643  -6.1307125  -5.6236472  20.3566189  -5.2539854
  -6.9917483  20.2895603  -5.8157396  15.7537994 -36.4597740  25.1095867
  15.6655569 -37.4477119  25.2901077  14.8117056 -36.2679176  24.7948036
   4.8478227 -22.2225151 -18.4448643   5.3893828 -21.4870396 -18.8487682
   4.3669190 -21.7525978 -17.7363224  23.1811047 -27.2654152 -27.7236919
  23.0735607 -27.7209187 -26.8640823  23.0261822 -27.9991512 -28.3834972
  17.9836235  -4.1722155 -43.3812561  17.6996880  -3.8771281 -42.5200729
  17.9802570  -3.2624671 -43.8137131 -19.6135960  18.3800297  33.6417580
 -19.1426964  19.2418594  33.4524765 -20.2108383  18.6755714  34.3869019
  24.4678650  20.9231892  11.1226845  24.0823288  21.0204296  11.9666214
  24.0024071  20.2061443  10.6710825 -43.7817764  22.6119862  -8.8983011
 -44.5965729  22.2028198  -8.5306673 -43.3048973  21.7602062  -9.1579456
  -0.1244036  -0.6255394  46.7432709   0.4785097   0.0495713  46.3402939
  -0.0291649  -1.3310395  46.0838585   0.4605322   7.1225047   3.0153811
  -0.3274146   6.6351843   2.5219398   0.7314346   6.3391032   3.5772185
  40.0249329 -15.4240818  27.0225086  39.1694107 -15.4525671  26.5340977
  40.2136688 -14.4946651  26.8958473  10.8029747   7.1218486 -29.5511799
  10.9526644   6.7265091 -28.7071609  10.3486872   6.4424171 -30.0394554
  14.0498075 -33.2262421  41.0171585  14.9890709 -33.0953026  40.8605232
  13.8564968 -34.0565300  40.5384102  10.1537552 -16.0645027  38.9420929
   9.2089710 -15.7359810  38.8816338  10.1766882 -16.5249882  38.0140533
   0.5252270 -28.4066772 -11.5703115   1.0314709 -28.5042953 -12.4374447
   1.2994449 -28.3592453 -10.9572134   2.8183064 -20.3253002  -6.7605171
   3.2297072 -21.0750427  -6.2554870   3.6572890 -19.9320831  -7.0648994
 -40.0388222  -8.2819433   7.9321475 -39.2677803  -7.8634801   8.4313250
 -39.5097008  -8.4266214   7.0641837  -0.4778783  34.0772324  -1.6241621
  -1.2787862  34.6404305  -1.9335729   0.1790038  34.7983665  -1.5125667
  38.8298645  28.0674210 -12.8214703  39.0099258  28.1575947 -13.7705603
  38.6356773  27.0938053 -12.8182907 -23.9875488  20.3984966  38.9817123
 -23.1961422  19.8852673  38.9498062 -24.5583000  19.9667130  39.5756035
  -4.4387097  14.8701181  35.0507545  -5.3888779  15.0836134  35.2541771
  -4.3259578  15.5058308  34.2585106   0.1271957  17.8437252  24.3375454
   0.2889650  18.1287727  23.3928490  -0.6719841  17.3631916  24.2181492
  15.0380592  19.8371029  14.4935789  14.9741507  18.8153973  14.6329212
  15.8085127  20.0351295  15.0828533  30.0696201  37.5235558  -5.7268052
  29.2399502  37.4457893  -6.1424980  30.6922855  37.6371880  -6.4025064
  20.9708443  32.6878471  -0.8781465  21.0448456  31.9168129  -0.3193452
  20.3734818  32.3748665  -1.5364494  -4.4558883 -18.1291943  16.1040745
  -5.1875081 -17.5693016  16.5452862  -3.6966228 -17.5670433  16.2320347
 -23.0612278 -29.5421658  23.6959934 -23.2213821 -29.5924301  24.6582088
 -22.2599907 -28.9840069  23.6547413   5.2669320  47.6839523  -0.0047398
   4.4430628  47.7001266   0.4450215   5.0372038  48.1397591  -0.8524115
  35.4779243  16.9350128  26.9486523  34.9568939  16.6029663  27.6647968
  36.3866081  16.5440426  27.1492596 -31.6635647  30.9928780  11.3724232
 -32.0812950  31.4803963  12.0999813 -30.7260342  31.0714054  11.5524645
  -9.6865101   2.6520462 -12.3762665  -8.7680588   2.7904806 -12.6398115
 -10.0474815   2.6716783 -13.2702761  -4.0567012 -25.8362541  27.9931965
  -3.8800952 -26.5818062  27.3895512  -4.9072948 -26.1831875  28.3973827
 -10.9939651  25.7869415  -5.8537726 -10.3904400  25.0375748  -5.7761240
 -11.3809042  25.6048603  -6.7268167  14.2755919  36.3158073  26.9737091
  14.0887337  35.3468552  27.0063400  13.3360519  36.6653938  26.9838772
 -20.7795773 -29.5933571 -24.1736717 -21.7384892 -29.8165092 -23.9447155
 -20.3317585 -30.0350304 -23.4309940  10.3380413  -8.1992607 -50.9930038
  11.2463484  -8.4740562 -50.6394958  10.4764099  -7.2244096 -51.0146408
   1.3175108 -31.3216419   4.2967529   1.1763399 -30.3823128   4.0468531
   2.2878401 -31.3895016   4.2765412 -34.6376228   3.2307956 -38.7994423
 -35.6201820   3.1450193 -38.7352333 -34.3590546   2.3206272 -38.5747414
  23.3119144   7.0280299 -20.6449680  22.7545662   7.8430381 -20.7189636
  22.7707138   6.3669801 -21.1458931 -20.8855648  15.5323820   5.4394798
 -21.4562988  16.0431652   6.0712328 -21.4809570  15.4650803   4.6782951
 -20.7908020 -18.7497311 -24.8692799 -20.4211159 -19.6495361 -24.7902718
 -21.5140724 -18.9230824 -25.4936810 -27.8934460  22.6188717  34.6346664
 -26.9503212  22.8383980  34.2736778 -28.3230343  23.5040627  34.5139198
  41.8265648  -1.0939327  33.7606621  41.4774818  -0.4436184  34.4087791
  41.0760345  -1.1966043  33.1538506  41.1182518   1.2283536  -9.7728643
  41.9715538   1.6521305  -9.5393829  40.6161842   1.7801528  -9.2039337
 -21.8999043  10.9769402  -3.5426884 -22.8418961  10.7909431  -3.3572369
 -21.6858215  11.6600151  -2.9443343  13.0679827 -28.9916706  37.1206284
  12.1434612 -29.3276196  37.0399742  13.3335228 -29.4108791  37.9030190
 -32.9150238  -9.1086540 -25.6555309 -33.0794601 -10.0856323 -25.9395695
 -33.5065079  -8.6723013 -26.3664303  -0.1921675  42.4670677   9.6253786
  -0.3840881  42.9014130  10.4660006  -0.9680232  42.5969887   9.1132612
 -39.0250473  11.6122723 -28.1345062 -39.0799408  12.5793505 -28.3783131
 -39.4242363  11.7190142 -27.2206898   3.4904637 -32.1652184  -5.7483368
   2.8031504 -32.8590164  -5.6134830   4.1076183 -32.5650520  -5.1055961
 -14.6636505 -17.4717026 -12.9652853 -14.5638342 -18.0640678 -12.1478701
 -15.6498795 -17.3586369 -12.9121895 -18.5483017 -23.8917313  16.7786293
 -18.4055462 -23.1919613  17.4903412 -19.3416901 -23.5676613  16.2976475
 -11.2375221 -22.6361370  13.2165594 -11.7965088 -22.9310532  13.9991398
 -10.4957361 -23.2718716  13.2916384  18.3976307 -26.8286057 -14.9443569
  19.1912804 -27.0258999 -14.3818598  18.3281536 -27.7055626 -15.4005966
   4.3771629 -21.0858936  33.1632652   3.6177425 -21.4538898  32.5373116
   5.0297489 -20.8781490  32.4259834  20.1807213  -8.3265543  49.0268898
  19.2538414  -8.6132498  49.1861343  20.0425320  -7.3969674  48.8468590
  36.5774422   2.0486097  -5.6800661  36.5338821   3.0251276  -5.9104404
  37.2885742   2.0434036  -5.0404606 -18.6332302  38.9106636  27.3593102
 -18.8036633  38.1044769  27.8675518 -17.6972752  39.0243378  27.4684811
  35.3045006  13.3443441  28.5286140  34.4374809  13.2338152  27.9573421
  35.1047363  14.2709217  28.9123707 -36.9330673  -0.7358704 -29.2529430
 -37.0831261  -1.5914440 -29.6406803 -37.0652847  -0.1221280 -29.9734306
   4.2049899   1.6563737 -15.5272474   3.6513579   1.8709499 -16.2642689
   4.9614987   1.1943462 -15.8930225  26.7655754  -5.4484181  40.1886253
  27.3214359  -6.0927253  40.6369171  25.9755325  -6.0494475  40.0133400
   8.4707441 -23.4813290 -37.9422417   9.0881624 -22.6821136 -38.0849915
   8.9875546 -23.8840275 -37.2179222  31.5030365  -1.0943412  11.7054644
  32.0389061  -1.5195295  12.4163227  32.0786705  -0.3410354  11.4361992
   2.3395324   0.1715100  20.2446404   2.9661937   0.4802771  19.5813694
   2.9099452  -0.2479961  20.9058495  28.5288887 -30.2266521  12.3718119
  28.4887638 -30.8863316  11.6460762  28.8990669 -29.4476223  11.9415321
  29.2991486  26.8292427   3.8331094  28.8286533  27.1507797   3.0395932
  29.5051174  27.6869392   4.2518229   5.9446359   9.0573959   1.7689307
   6.1220884   8.8471270   0.8647972   6.8097301   9.2464600   2.1388457
  24.7052956 -30.0988827  27.5264568  24.2318325 -30.9125156  27.6414871
  24.5344677 -29.8651047  26.5877037 -18.5957279 -18.1396046 -22.5596104
 -18.7975197 -19.0912151 -22.5858383 -19.4311123 -17.7438374 -22.3243294
  15.2310696  37.7658958  10.6473131  14.8080397  38.1853065   9.8778610
  14.5707836  37.3419800  11.1226320  17.7041950   7.9591384  -9.0397415
  16.7083855   7.9081135  -8.9745426  17.9471798   6.9602752  -8.8691616
  10.6302805  29.3718586   3.7582819   9.8873043  28.9257355   3.2658546
  11.1871758  28.6011295   3.9976881  34.9608154 -19.5892830 -28.1191292
  34.9779739 -18.7920589 -27.6269436  34.8628807 -19.3350964 -29.0310650
  -2.1496401  43.9862251  -4.8212771  -2.0302846  43.4777069  -5.6066427
  -2.9096038  44.5787277  -5.0581446 -25.8297787 -20.8561802   7.2529950
 -24.8529568 -20.5002270   7.3651671 -26.2064285 -20.1317692   6.7611904
 -31.3754139   2.4487078 -20.0511913 -30.6152382   2.3598380 -19.4655037
 -32.1363945   2.1525257 -19.4379692 -14.9025593  14.1379910 -33.8634300
 -14.3948011  14.2640915 -32.9577217 -14.4547472  13.3122654 -34.0811958
   7.2856903 -33.3645058  30.0430412   6.7812715 -32.8221207  29.3932247
   6.6426239 -34.1025810  30.2332859 -21.3988667 -38.0243492  22.5017815
 -21.1589775 -37.2202492  22.0101986 -20.5919075 -38.0930595  23.1067467
 -10.5958748  -8.0566111  15.3874397 -10.5054493  -7.2114968  15.8122110
 -10.5774307  -8.6560793  16.1764297  38.0099792 -31.2857780  -2.8416159
  37.5620003 -31.7997284  -2.1550872  37.2493172 -30.8990860  -3.2971191
   0.3337905 -36.6719780  -7.2199574  -0.3337449 -37.4291954  -7.1364946
   0.5620789 -36.8358917  -8.1644697  13.8708372  20.5386238  -7.3027239
  14.1403255  20.4189491  -8.2504950  13.5065184  19.6372223  -7.1749697
  -2.2753282  16.3263073  24.4771118  -2.8417883  16.2404594  25.2984924
  -2.9170127  16.8037300  23.9019299  21.1958771 -14.7379866  38.9916153
  21.2167931 -14.0945673  38.3141632  20.9586620 -14.1799250  39.7335777
  -8.1879673   5.1937571 -31.5995636  -7.7279115   5.3330164 -32.4298401
  -7.8253803   5.9938254 -31.1080494  -8.5817862 -39.5756226  19.1133137
  -9.2032576 -38.8399200  18.9303665  -7.7624416 -39.0439034  19.0075588
  27.5342522  39.9746933 -15.4322901  27.5210266  39.4836464 -16.2615490
  26.6494904  40.2331467 -15.2637100   0.0660750  34.8311234 -19.7155819
  -0.4155983  34.6957283 -18.8610592   0.5959900  34.0222855 -19.7316952
   2.4171391   0.7129664 -29.1222134   3.3090343   0.9792167 -28.7769890
   2.6242759  -0.0586856 -29.7194881 -33.5549431 -19.1688976  -2.3830965
 -33.4040222 -18.6184673  -3.1648765 -32.6472206 -19.3201427  -2.0441153
 -16.3987942 -18.6195164  -1.0420460 -16.1871433 -17.8191910  -1.5891404
 -16.0614166 -18.2992439  -0.1435519 -33.9323807 -32.3970947 -18.6992722
 -33.8809357 -32.5618362 -19.6731224 -33.0438156 -32.0559883 -18.4806957
 -14.0381374 -22.1283035  24.2408276 -14.6156788 -22.4420891  23.4892998
 -14.7734823 -21.9775581  24.8937950   7.7620339  16.6419792  38.0843620
   8.4603357  16.7731323  37.4214020   7.5644832  17.5221996  38.3632622
  -6.9940448 -19.4873047  33.7420845  -6.8549738 -19.0924873  32.8421440
  -6.5851207 -20.3577461  33.6007729 -12.7081423  33.7129822  16.9734383
 -13.2507334  33.3312263  17.6891022 -12.0068264  33.0364914  16.9892998
 -12.3332949  24.7710114  32.6548729 -11.5586863  24.3466225  32.3058167
 -12.5747805  25.4678230  31.9954643  28.3876286  38.2748299 -17.5659676
  28.4296398  37.5703773 -16.8786659  28.5903225  37.8516350 -18.3831654
  -3.1675074  28.6147842  24.8448677  -3.7104967  28.9696636  24.1031246
  -3.8386934  28.0943794  25.3190250  11.0689383 -37.3235245 -26.5655041
  10.7074575 -36.4043159 -26.6125126  10.5443363 -37.7093658 -27.2963943
  16.8332291 -24.9239731 -39.9100304  16.6204166 -25.2672977 -40.7778511
  17.0886402 -25.7070274 -39.4028358  27.0503788  -3.0584695 -19.3404217
  27.2759247  -2.6186881 -20.1523380  27.2643547  -3.9708524 -19.3981380
  -5.9530134 -13.7754669 -41.5574265  -6.4602256 -12.9524660 -41.2810593
  -5.6866961 -14.1435852 -40.7389641  13.2482758  11.8390465  32.5102501
  12.2942076  11.6200905  32.2710648  13.3629818  12.6366653  31.9790859
   8.3463135 -35.4569168 -14.4389925   8.1354313 -35.7946701 -13.4910011
   8.6046915 -34.5314484 -14.1754293  29.2280521  -7.4192276 -43.7862244
  29.7234077  -7.9443240 -44.4967995  28.3342190  -7.4500651 -44.0929680
 -19.3006630   8.2705097 -32.5122490 -19.2553749   9.2357340 -32.7314148
 -19.1218700   8.2767582 -31.5344563  -6.4133525  10.5593033 -20.7143745
  -6.4478512  10.3041687 -19.7949276  -5.7293477  11.2775402 -20.6803818
 -14.0717659 -13.2782488 -14.6234121 -14.1520710 -12.3820124 -14.2865314
 -13.6503382 -13.1392908 -15.4296951  -7.2590904 -26.9239922 -21.1253109
  -7.6003318 -26.5566883 -21.9726925  -7.9764142 -27.4751301 -20.8216629
 -23.5032177 -34.1904526 -18.3179836 -23.5009155 -34.4109383 -17.3403625
 -23.9419384 -35.0190849 -18.6540337  38.6498871  34.2984390   6.0065818
  38.8628654  35.0059204   6.5988212  38.8165741  33.4725075   6.5325627
   4.1216435  11.6403313 -18.3175049   4.0523000  12.0379858 -17.4331627
   3.4976444  10.9378386 -18.3488789 -25.3404350  -9.1077385 -24.1204605
 -25.2058372  -9.7314177 -24.8592663 -24.8807812  -9.5969000 -23.3824768
 -22.3683662  36.9613724  11.7988720 -22.2543755  36.1950188  12.3853493
 -22.1360130  37.6705856  12.4320955  26.1831722   9.2028122 -36.1400490
  25.3857727   9.5825300 -35.6706505  26.6697845   8.9229431 -35.3533478
   9.9660883 -42.9511681 -13.6121311  10.0107660 -42.9201965 -12.6277180
  10.0143623 -43.9136314 -13.7645950  15.0486231  -3.0918610  21.6354256
  15.7261124  -2.5589013  21.1824150  14.9923725  -3.8509204  21.0244179
  37.7877769  -9.0584087  -6.3228688  37.7628593  -8.6590309  -7.2528238
  38.7111397  -9.0632572  -6.1348577   8.3375206 -33.3740273 -20.5760441
   8.8603373 -33.9196396 -19.9471664   8.5339937 -33.8593864 -21.3819962
  -9.1062984   8.6123686  37.7563019  -9.3038740   7.9985585  37.0510712
  -9.6653767   8.3506250  38.4911880 -32.4845963  12.5467901   1.1797512
 -32.6053963  12.6918449   2.1207891 -33.2555275  11.9197960   0.9826861
 -13.9332619 -44.3478127  -0.1282217 -13.8838673 -43.8538322   0.7112542
 -14.5582428 -43.7636147  -0.6193472  41.0397034  -0.5598257  37.8547783
  40.2698250  -0.8221893  38.3526497  40.6543465  -0.4356444  36.9509583
  -9.7733536  32.3443794   0.7595057  -9.0032892  32.2540436   0.1436859
 -10.3241501  31.5938587   0.5212924 -38.5882645 -10.4974432  27.2683582
 -38.4640350 -11.2556581  26.6260376 -37.8266373 -10.7141972  27.8717251
 -11.3281565 -36.8562965   2.2196414 -10.8467712 -37.7271080   2.2572029
 -10.7621851 -36.2997894   2.8044231  -5.2770004  45.6355972  19.9759369
  -4.6362476  44.9854736  20.3033237  -5.8683195  45.0137482  19.5269012
  38.9722824 -24.7966499 -23.5447369  38.9322433 -24.1036663 -22.8364277
  38.7078705 -25.5758343 -22.9956322 -16.2069168 -18.6909790 -16.0825405
 -15.3584633 -19.2345257 -16.0300484 -16.7159786 -19.2740803 -15.5190048
  -1.8656119  41.7829208  18.3884201  -1.9335206  42.8001518  18.5442963
  -1.7733607  41.5841408  19.3813515 -17.1792488  -0.8732505  -8.1895380
 -17.0730534  -1.8646789  -8.2159481 -17.4279537  -0.7263673  -9.1443596
 -41.5370369   6.1808043  -8.5773315 -41.9834862   6.8411794  -7.9904122
 -40.5946693   6.3035579  -8.2024155  36.5538597 -12.5278044  28.1368732
  36.9234085 -12.2144051  27.2244072  35.7357025 -12.9359522  27.7221928
  44.3799896  28.5791607   6.7181172  44.3182526  28.8826466   7.6597185
  43.4450493  28.7433338   6.4866414 -21.7585812  25.1049671  14.4801168
 -21.0571632  25.6086369  14.9835291 -21.5570335  24.2187023  14.8622494
  29.3665066  13.1741009  -5.9398727  28.6707516  12.6041040  -6.3894725
  28.8044891  13.8214998  -5.4855099  20.8826122   7.3306761  32.5661964
  21.8604069   7.4589562  32.4953842  20.8894768   6.6387239  33.2912064
 -38.7526970   5.6497517 -24.9144478 -38.7701111   4.6668997 -24.7171822
 -38.4665565   5.5521278 -25.8809929   6.9769211  36.6204300  -0.5293941
   6.8586907  37.4599266  -0.0159440   6.1651554  36.1639290  -0.2614430
   3.7111626  17.3229027  20.1769161   3.6946955  18.2445889  20.4983006
   4.4038410  16.9149265  20.7130470 -29.7563324 -21.4536076 -19.5468521
 -30.3240356 -20.6027946 -19.5049667 -28.8734493 -21.0547791 -19.4031200
 -27.9930573  33.0737190  -6.9165201 -28.4817772  33.1506310  -6.0325933
 -27.5072803  32.2595825  -6.6705971  18.3892975 -22.2784061  11.9463167
  18.4361744 -21.4018555  11.5674076  18.9372749 -22.7423306  11.2466278
   6.9253683 -16.7880993 -46.9721718   5.9550529 -16.6904659 -46.9492760
   7.1399283 -17.0336266 -46.0465622 -38.5366631  -6.4208846 -13.9957724
 -38.9801216  -5.8634605 -14.7048626 -37.6193962  -6.2373619 -14.0782270
 -23.1079979 -15.9587154 -13.0210209 -22.2012196 -16.2729912 -13.1622114
 -23.0188694 -15.0112143 -13.2577839  31.0826073  -0.0454913  -2.0149467
  30.5451336  -0.0231544  -2.8345292  31.3669224  -0.9946925  -2.0714583
  41.7664642 -26.0281715 -22.2602978  41.8129158 -26.9735622 -21.9458103
  41.1047516 -25.6205406 -21.6697559  -1.1164900 -46.8178825 -21.4520378
  -0.4113508 -46.9911957 -22.1448441  -0.8857040 -47.5069695 -20.8147278
 -17.8498631  34.2283325 -26.5706596 -18.2966652  35.0553627 -26.3620434
 -18.3060894  33.5946579 -25.9954300  18.2999840 -17.3060017  38.7728119
  18.9210205 -17.9836712  38.9552078  18.0083141 -17.0663280  39.7209854
 -12.3411798  37.4217224 -23.9882736 -13.0218096  37.4051132 -24.6933098
 -12.1656618  36.4539108 -23.9452114  -3.0148149   2.9016559   0.5192571
  -2.6563926   2.1351442   1.0364288  -3.6114802   3.2274368   1.2310325
 -11.8796444 -46.0653687   0.3522435 -11.4575891 -45.6179543   1.1228466
 -12.6445169 -45.3963699   0.1463239  13.0452261  42.9902687  15.6870565
  13.0457354  42.4178238  14.8318510  12.3099976  43.5720673  15.4551783
 -20.6201477 -15.9886541 -31.7321415 -19.7863293 -16.3893356 -31.9019108
 -20.8563194 -16.4174767 -30.8223782   1.8921728  27.4148903  37.0764542
   1.0026015  27.4008808  36.7477684   1.6764070  27.2064743  38.0507393
   1.6210191 -23.4207764  -0.2892128   1.3203677 -24.2242622  -0.8180412
   2.5212517 -23.6408119  -0.1295906 -35.3508072  16.5262985  19.6100998
 -34.6744156  15.8794441  19.3680363 -34.9441948  17.4084187  19.5045013
  36.5759010  25.4122734  19.9912224  37.2014503  26.2082996  19.9676552
  37.1389771  24.7773552  20.4446106  28.4876232   3.4992301  18.5468063
  27.9080906   2.6970084  18.3868332  28.3693619   3.9390538  17.7188873
 -31.1379528   0.8931350  36.5341988 -31.1091251   1.3210348  37.4566727
 -31.5224266   0.0118001  36.7692184  -6.7467437  34.0575752 -22.5451546
  -6.5386195  33.1451988 -22.2255878  -6.9711194  34.4235039 -21.6325836
 -11.6364679  26.5510025 -17.3066158 -11.3603945  27.0750542 -18.1585846
 -12.4630690  26.2492008 -17.5510273 -29.0697842 -38.2319260 -20.5003700
 -29.3868904 -38.9050407 -19.8147564 -29.8209076 -37.5978165 -20.4443913
  41.1220360 -14.3306856  12.7802582  41.0429649 -14.4486713  11.7341805
  41.3387871 -13.3603315  12.7056322 -12.3376331  28.8351688  17.1379700
 -11.8964014  28.6082745  18.0347042 -13.2065868  29.0052929  17.5306530
  34.0257988  -7.0771403 -29.2300510  34.8068390  -7.5969467 -28.8957863
  34.0424156  -6.2768087 -28.6395721  10.5316582  48.7437096   1.9264332
  10.3030748  49.5444908   2.3864045   9.6649876  48.3435555   1.8229624
  17.5070286 -21.9141846  25.6191235  18.0533066 -21.1083241  25.4442043
  16.6355419 -21.5024681  25.7734985  -0.3785236  -0.8309280  -7.5035181
  -0.4671591  -1.7172326  -7.8531551  -0.4427063  -0.9625646  -6.5208421
   9.3572254 -37.7621384  35.5279541   8.6147699 -38.3702164  35.3962288
   9.6548090 -37.7100143  34.6178246  15.0813522   7.0672255  -9.8469391
  14.2299900   6.6501045 -10.1271811  15.2300701   6.5551252  -9.0069838
  -1.1393625  16.7254658 -22.8268738  -0.2968967  17.2327461 -22.7789116
  -0.8210047  15.8341017 -22.8330746 -25.0545635 -18.1346302  28.0002785
 -25.4322205 -19.0221024  27.8386669 -24.2964325 -18.3723602  28.6169224
  16.7225361  12.7913485  -5.6330023  16.0164032  12.6873693  -4.9164963
  16.9078598  13.7134237  -5.4866338  23.3655529   0.2822334 -32.7368584
  23.9326801   0.0503928 -33.5132713  22.4675312   0.2603317 -33.2070084
   4.3985648   2.7505331  11.4919538   3.5999672   2.8283262  12.0215473
   4.4744649   3.6357851  11.0634899  -7.9656100  20.3904076   2.5800688
  -8.6472406  19.7606487   2.3715241  -7.1327066  19.8422832   2.3507652
   4.8959236  -4.9041772   8.8347168   4.5646873  -5.8311119   8.9316359
   4.6255074  -4.7436304   7.9110460  20.4189510   4.5990005 -27.3504906
  19.5903854   4.3702683 -27.8099689  20.9685631   4.7878046 -28.1609402
 -31.2326431 -13.9676371  28.9741173 -30.9238892 -14.2778282  28.1226826
 -30.4587708 -14.0426006  29.5223503  29.4644394  31.4119663  14.0295038
  28.6576614  31.0706768  13.5752201  30.1889114  30.9053745  13.5729837
  -0.8559483 -44.2795792 -11.3796225  -0.1339695 -43.6655159 -11.1012964
  -0.8859566 -44.1004486 -12.3051491 -27.9329109   0.9345423   7.9421902
 -28.7288551   1.3936238   8.3573999 -27.2794971   1.5712193   8.3400297
 -17.3956566   4.6473360   9.2904472 -17.5611744   3.7133327   8.8807116
 -17.9771385   4.4675884  10.0951452 -22.9379139 -10.9405098 -35.9105644
 -22.2812939 -10.6943789 -36.5900307 -23.7552891 -11.0894098 -36.4816246
  -7.1218295  26.6727486  11.2517948  -6.8059812  26.7502575  12.1678028
  -7.0025449  27.6120949  10.9739046  38.6797028 -24.3434067   2.5519013
  38.8629494 -25.2931137   2.5817661  39.5776138 -23.9763222   2.8370018
 -13.2909040   9.0104980  16.6130199 -13.4932785   8.3029737  16.0458355
 -12.5718136   9.4699059  16.2284966   7.6967044 -27.3250008 -32.9489937
   7.9834881 -28.2532597 -33.1404228   6.8570228 -27.5837994 -32.5010567
   8.6020803   2.4003358 -12.4474897   8.0817003   1.7531697 -12.9479179
   8.2827406   2.1973705 -11.5298834  -9.6309204  23.6862106  -1.6207166
  -9.7585278  22.7849998  -1.9650460 -10.3899574  23.8459167  -1.0254161
   2.9179327  10.2858458  43.1776733   3.3611698  10.3469381  42.2998161
   3.6478000   9.8833952  43.6961136 -20.5332375  -2.3509927  -9.3263121
 -21.2542152  -1.6523675  -9.1776199 -20.7741623  -2.6335950 -10.2296820
  -7.8209367 -38.9294205 -25.4189777  -6.9364705 -39.3040237 -25.2465973
  -8.0411034 -38.6776352 -24.4793682 -40.0147324 -26.0329590 -14.8736753
 -39.8554878 -26.2385845 -13.9088202 -39.3298225 -26.6381168 -15.2565832
 -15.4579191  31.2114620  15.6436453 -14.6466770  31.2915249  15.0738707
 -15.6165686  32.1250610  15.9738235  14.3661785 -18.3979111 -29.4066048
  14.1151476 -17.8008709 -28.7150269  13.6352262 -18.2927799 -30.0440388
  38.6779671  17.1086349 -22.5544167  38.1137733  17.6208172 -21.9306984
  39.4634857  16.9438305 -22.0374050  16.8166447   3.7652855  13.1276455
  16.3865547   3.1019113  13.7083788  17.6202888   3.3278041  12.7960730
   6.7510533   0.1467695  24.8713341   7.3399086  -0.4750932  24.3718185
   6.0401006  -0.4597533  25.1460361  -0.9848176  -8.5886059  34.7796021
  -1.2881739  -8.6631966  35.7274246  -1.7298088  -9.0144558  34.3518257
   3.4528663 -38.7662315 -20.0719700   2.9698007 -37.8455276 -19.8859158
   2.7114592 -39.3275185 -19.7222786   4.2608953  26.5583611  35.8328514
   3.5117073  27.2059593  35.8934708   4.6116242  26.5916939  36.7467575
 -12.6932516 -38.7966728  18.5931072 -11.8510752 -38.3495903  18.4927692
 -12.8296947 -38.8787537  19.5220242 -41.0882797  -3.8801026  32.6900826
 -41.9519463  -3.4866970  32.8231659 -40.6135139  -3.0835457  32.3326836
   0.5221505   8.2080698 -16.3451195   1.1806103   7.4627147 -16.3887043
  -0.1448344   7.8281403 -15.7628384 -16.2485981  29.9961281   4.5224147
 -16.1455555  30.9131107   4.1402254 -16.2960720  29.4331303   3.7491858
 -18.7523842  31.5416851  10.6244144 -18.0373287  31.3978653  11.2737989
 -18.6352749  32.5257378  10.5141630 -26.2138329 -42.5645905 -15.1832447
 -26.7465897 -42.6014977 -14.3522596 -26.2851334 -43.5079575 -15.4775562
   9.7604656  29.3548222 -17.8880768  10.3876505  28.5882168 -17.7437515
   9.0265608  28.8470306 -18.2987442 -16.5724831 -15.6961203  30.8221207
 -17.1144047 -16.1108360  31.5540581 -15.7991772 -16.2144070  30.7221584
 -18.9396572 -10.3431797 -23.7401447 -19.8449535 -10.7607527 -23.7790642
 -18.5412178 -10.7913685 -23.0261059  19.0009060  18.8871269   7.8457351
  19.4596748  18.5248280   8.6352139  19.1337585  18.1185246   7.2236128
 -23.7557583  23.1596870  -6.5421414 -24.3715439  23.7077827  -6.0333099
 -24.3995190  22.4898930  -6.9031916  37.8056908  -3.1364734   4.7838173
  38.1491928  -4.0400677   4.9009633  38.0507393  -3.0279973   3.8326263
  20.1451569  12.0762053 -28.2835941  20.0795097  12.8744268 -27.7251663
  19.9828568  11.3647823 -27.5777531  14.0075932 -22.2397747  -3.3576427
  14.9034309 -21.8604889  -3.4697073  13.7827816 -22.5902386  -4.2085176
 -16.9013500  16.3674107  20.5044117 -16.3306923  15.6183929  20.7523460
 -17.7751598  16.0511951  20.6311016  13.3578386 -18.7738762 -35.3431091
  14.2528429 -18.6519699 -35.7990456  13.1931620 -19.7053280 -35.4998093
   7.9908428  38.6815071  20.7176533   8.6905222  39.3535843  21.0258617
   7.4258642  38.7929573  21.5009499  19.0227013 -30.8939533  29.6775875
  19.9098549 -31.1415482  29.9706993  18.6585445 -31.7438602  29.3775921
 -42.3995895 -20.2890739 -21.2948647 -42.4147797 -21.2019939 -21.7350388
 -42.9238625 -19.8557358 -22.0471592  -7.2383285  38.5609932 -31.6357212
  -7.4393821  38.8102608 -30.7226238  -6.4217811  37.9997749 -31.4843254
  18.9991379  12.8872871  36.5457115  18.7220039  13.7969999  36.5457764
  19.7818432  12.9994020  37.1450272   1.6531334  -5.4526472  12.0088558
   0.8119995  -5.8404818  11.6587458   1.3935746  -4.4971442  12.0571012
 -26.9446430  29.5980854  15.1424227 -26.3242874  30.3683777  15.2605114
 -27.7641068  30.1157570  15.1018171 -17.4897175  30.3608532 -27.5088139
 -16.6146774  30.6613007 -27.6787472 -17.3962746  29.9087868 -26.6814537
  27.6940117  36.7186203  -0.2181696  27.1386433  36.8588142  -1.0080373
  27.2927799  37.3876686   0.3650161 -17.2797356  21.6648540   3.0885961
 -16.6323662  21.3410625   3.6788456 -16.7242088  21.8984642   2.2798166
 -39.7030258  27.9767323 -13.3889246 -39.2327271  28.5023422 -12.7010803
 -38.8307991  27.6328659 -13.8230953  30.6238060  14.7933893  -7.8595996
  29.9308453  14.5979815  -8.4720869  30.3729267  14.1942463  -7.1329284
   7.9025908  -3.7204955  10.2471275   8.5266037  -4.1707768   9.6996174
   8.4711199  -3.1148272  10.7098532  -2.5106742  38.9640312  -9.8955612
  -2.8213544  39.2549286 -10.7535925  -2.7449265  38.0282021  -9.8787308
  -9.9987803  -4.9140344  20.1025982  -9.6828556  -4.8724594  19.1368484
  -9.2694426  -4.3507090  20.4713039  27.6578465   3.6642294 -33.7450027
  27.0393276   3.2263670 -33.0933914  27.1475792   4.4899840 -33.7736702
  15.7155924  -8.8095255   9.3215351  15.8401070  -8.2739773  10.1630955
  16.4765530  -9.4020538   9.3268223 -10.8774080  -7.0473948   4.8144989
 -10.4752626  -6.1619029   4.5771646 -11.5412741  -6.7089443   5.4907179
 -35.1305923  -8.8263254  -9.2224884 -34.7122459  -9.5993624  -9.4674845
 -35.1415138  -8.3380098 -10.0684118 -15.6409702  25.1754761  -2.8386014
 -14.7940235  25.4611740  -3.2618468 -15.8506470  24.3013878  -3.2794504
  13.9945030  11.6075058  35.9749527  13.1514339  11.1180840  36.0439987
  13.8353577  12.0229540  35.0520630  -6.5698671 -47.2189178 -23.9223537
  -6.2865925 -48.0433464 -23.4343987  -6.7396178 -47.6567001 -24.7851124
  30.4849701 -19.9948235 -35.3121109  31.4099140 -20.3422871 -35.2087135
  30.6542549 -19.5782146 -36.2059708 -10.6306095  38.9128113  -7.7184210
 -11.4468737  39.3399239  -7.3935785  -9.9744701  39.7180710  -7.6140718
  20.6659508 -30.8162193 -18.9592113  19.8318748 -31.0848999 -18.5405617
  20.8225765 -31.6080341 -19.4817924  -6.3529267 -18.1129246 -20.0200882
  -5.8570404 -18.9443302 -20.1862659  -5.8774476 -17.7058811 -19.3297691
  22.2676048  16.3228531  24.0611248  23.1912117  16.3681812  23.8343773
  21.7936649  16.6374702  23.2769833  20.5340939  10.1817274  25.1939850
  21.1635265  10.8879099  24.9333649  20.3573761   9.7962542  24.2519569
  22.3666248 -11.2048998  10.5766277  23.1702003 -11.8068047  10.7299776
  22.4821053 -11.0925035   9.6238728   3.9781332 -34.0361404  24.6827297
   4.0306864 -33.8719330  25.5815964   4.2583442 -34.9784393  24.6293468
   1.1218109  40.1950798 -26.4845924   1.1035734  40.8597641 -25.8070507
   1.6914108  40.5917892 -27.1783810  -0.9100525 -30.7007599  -5.6085072
  -1.5464970 -31.2898521  -6.0596800  -0.6353930 -30.0940876  -6.3112693
  -6.2185135 -10.8294811 -18.9918327  -5.3735089 -10.8196125 -18.4242764
  -6.5242329 -11.6675053 -18.7030449  34.1615639  -8.3709030  -8.2881031
  33.7626877  -9.0899477  -7.7741246  33.4918327  -8.3113384  -8.9858913
 -27.7540455 -34.1757317  -1.6663759 -27.6059570 -35.1198044  -2.0118799
 -27.9588070 -33.8273430  -2.6221344   1.1401770   3.0724258  29.0726471
   0.6644678   2.1772306  28.8491364   1.2300566   2.9408722  30.0205345
   9.9126558  14.8086672   8.9296112  10.2414227  13.9743233   9.2407894
  10.6966829  15.4021778   9.1188393  26.5280991   1.5144305   7.0372906
  25.8938904   0.9765229   7.5791316  25.9482613   1.7976195   6.3238087
   4.8545985  -3.7322652  15.2324600   4.9684644  -3.1008084  15.9314594
   5.7659726  -3.7765138  14.8768559  -0.2987214  -9.6896286 -23.8025551
  -1.0626173 -10.1238222 -23.3023777   0.2619155  -9.5000305 -23.0462112
   0.6691382 -43.3572235  -5.7157240  -0.2322565 -42.9881935  -5.7468743
   0.3170850 -44.3234367  -5.9108710 -27.1965313 -11.6804237 -27.2173233
 -27.1738701 -11.2637806 -28.0893402 -26.2916317 -11.7551060 -26.9797688
  27.1751728 -15.6498842 -31.1105576  27.9698048 -16.2078400 -31.0364151
  27.2838364 -15.4139957 -32.0480804  16.9184551  18.2395000  24.0435791
  17.4074993  18.3783989  23.1719112  17.3233929  18.9717598  24.6032791
 -16.0549870  27.2217674 -10.0944633 -16.5176487  27.8722286 -10.7044706
 -16.8308163  26.6748066  -9.8666315 -30.1444626  -1.5548012  18.9597950
 -29.9134369  -0.6113213  18.9978924 -29.4176331  -1.9207226  19.4889450
  17.5770645  46.5927811  16.1048431  17.5828094  46.6776161  15.1276541
  16.6465569  46.8601608  16.2395210  21.6912975 -18.3531628   4.9677515
  22.2156429 -17.6317978   4.4830709  20.9756374 -18.5061550   4.2777886
  32.6600990  38.5771523 -16.4914055  32.3437958  37.9816589 -15.8012743
  33.1786079  37.9355545 -17.0036736  36.0932770   6.3387361  -1.1945529
  35.6373482   7.1586938  -0.9108890  35.3353691   5.8528767  -1.4955978
  23.2523518  16.1154118 -23.1202564  22.3467846  16.0967178 -23.6065216
  23.3814106  17.0954266 -23.2555542 -15.9767275  29.0505333 -25.6388168
 -15.1733103  29.2546005 -26.0147743 -15.9580936  28.1403522 -25.3068886
 -19.2126675  39.7768440 -31.3049412 -19.7735138  39.9039917 -30.5406475
 -19.8233986  39.9406052 -32.0326729 -23.5882874 -39.4512329   7.8649607
 -24.1681232 -39.1311836   7.1491075 -22.7539692 -38.9074974   7.7042117
 -17.1778336  19.5075302 -42.8782387 -17.7927246  20.2014637 -43.2468605
 -17.6347027  19.3213673 -42.0197945   6.3951302 -14.6026516  36.7038422
   6.5394826 -14.8092575  35.7329063   5.5427728 -15.1196413  36.7698402
  23.6589451   4.0299134  37.3636971  24.2383499   4.7072062  37.7799797
  23.9988918   4.0793257  36.4027328   4.8397598   2.9363923  49.3142509
   3.9654086   3.1279314  49.6402130   5.2838893   3.7738295  49.2715912
   3.4715712  44.1923828 -10.8465681   3.3633668  44.0236855 -11.8680305
   4.3060284  43.5744553 -10.8540630 -11.5111322 -33.3920250 -26.0893745
 -12.1799068 -32.6908760 -26.1959858 -11.5993729 -33.8141975 -27.0047112
  38.6108208 -15.8592234 -16.4747124  39.5141106 -15.6060905 -16.7807522
  38.0658760 -15.6651468 -17.3125076  -8.4012375 -17.0769310  -6.0154819
  -7.4082432 -16.9728413  -5.8074036  -8.5347099 -16.1170044  -6.2160106
 -43.7109032 -12.9272394  24.2081375 -42.8292999 -12.5885229  24.3439083
 -44.1901512 -12.1150751  23.9509296  15.8956623 -16.1517315 -24.9797077
  15.2095318 -16.8186893 -25.0144272  16.6718502 -16.6602211 -24.7292862
  27.2073059  -9.7685270 -10.6381531  27.1034756  -8.8046255 -10.7969961
  26.3934059 -10.1454334 -11.1044102  -9.5212488   8.2701864  -1.0902170
  -9.6286297   9.2538157  -1.2278334  -9.5791187   8.0238934  -2.0407138
 -15.8692999  35.8294029  38.3108177 -16.6366310  36.2129822  37.7844124
 -15.1206884  36.1219406  37.7946701  42.6616440  15.8847523  -3.4185488
  41.6905174  15.9393044  -3.2521155  42.7867355  16.6844978  -3.9933383
  31.7455158  35.6928940   3.0914297  31.3014545  35.9452515   3.9132428
  31.3250275  34.7966919   2.9204054 -10.1208601 -20.0132942 -32.2320251
  -9.1848011 -19.7365341 -31.8999538 -10.0593653 -20.9773846 -32.1136665
 -39.8160629  -0.8741032 -15.0120296 -40.4884338  -0.1807473 -14.8392572
 -39.7263603  -1.3032246 -14.1600666   5.7527027 -33.4483681   4.4021697
   6.2790446 -34.1633034   3.9368205   5.8373632 -33.7122383   5.3459558
  20.5703716  18.5782452 -22.1701794  20.1880379  19.3901653 -22.5647144
  21.1596813  18.2427788 -22.8053532   8.0805359  21.2481575  11.6797972
   8.5413046  21.8102856  12.3272657   8.8222294  20.5459423  11.5994959
  14.1413441 -39.0289078   6.8390403  13.2806377 -39.4848518   6.8972116
  14.6801682 -39.5771217   7.4891000  -4.6482997  -5.1367998  -7.7143140
  -4.6948829  -5.4476466  -6.8237629  -4.0750113  -5.8151193  -8.0881481
 -17.7393532   7.9668956 -30.3748569 -16.9956188   8.1202459 -29.7049942
 -18.0022068   7.0824947 -30.1128521  -7.1927524  39.1176834 -15.8448429
  -8.1494331  39.1647682 -16.1468811  -6.7552142  38.9168282 -16.6626186
 -16.1768208  16.7927799 -16.2171326 -15.2052584  16.8842850 -16.0796909
 -16.4868813  17.6657677 -15.9247885  44.3928337   0.4294138  32.8858223
  43.8719063  -0.3172177  32.5596275  44.2740211   0.3616808  33.8788528
  -8.6104317  20.0090370  -5.5968280  -9.2838879  20.6462994  -5.1835461
  -8.6622810  19.2722054  -4.9671664  18.0960026 -17.8822002 -35.0706825
  18.8473091 -18.0700397 -35.7068520  18.5662575 -17.2215366 -34.4740410
  -2.1340480 -10.2293034  -6.9597588  -2.0123601 -10.8494740  -7.7315040
  -2.2302926 -10.9634361  -6.2880621  20.0040703  -9.3699446  44.0242348
  20.6372528  -9.2806368  44.7926865  20.2090530  -8.4933901  43.6117821
  -5.1984854   6.3950429 -38.9318504  -6.1706023   6.3187537 -38.7471581
  -4.9086041   6.4263320 -38.0053101  23.0028458  40.9256897 -11.8799810
  22.9159794  40.4747162 -12.7388096  22.0781288  40.7647667 -11.5458021
 -11.1845570  41.6658020 -34.5118256 -11.2143316  40.8900108 -35.0681458
 -10.4068336  42.0880928 -34.8107605 -11.9117489  -9.7931652  21.4169922
 -12.1301622  -8.8825951  21.0803280 -11.6551085  -9.6248970  22.3192310
  -9.1417999 -35.1612816 -26.2116394  -9.6276560 -35.7748718 -26.7330704
  -9.6520367 -35.1524277 -25.3590927  -8.3672504 -22.6105747  25.8265858
  -8.5494699 -23.5939503  25.8658352  -9.2878456 -22.2168446  25.7956982
  -9.0905046  14.0707541  -5.2005591  -8.9894581  13.0990791  -4.9259939
  -9.3579779  14.5011215  -4.3821721 -23.9693050 -16.9343529  -9.7338829
 -24.1425381 -17.0314426 -10.6839952 -23.7843456 -15.9933033  -9.6722927
 -23.5392761   0.2602884 -43.3270836 -23.1916103  -0.0295907 -42.4743538
 -24.2116222   0.9038215 -43.0476265 -44.3051758  19.3638401  -7.6372938
 -45.0970650  19.4793072  -7.0859618 -43.6267166  19.8088379  -7.0958323
  34.9251480  19.0271225  -6.0467343  35.6204910  19.7192822  -5.7500162
  35.3713531  18.6162853  -6.7607040 -18.3564377 -36.2704201  23.7665405
 -18.2121429 -37.0749626  23.2213058 -17.4433117 -35.9226570  23.7685432
 -15.4218531 -25.6771832 -29.6971302 -14.8779221 -26.3671703 -30.0845203
 -14.7751856 -25.0040474 -29.4833622  35.3026924  28.8741932 -21.8131714
  35.5842590  29.4348259 -21.0232086  35.9434204  29.0973969 -22.4666862
  41.9922981 -29.2022476  -7.4884205  42.7824211 -29.7789421  -7.9314351
  41.4119987 -29.1823845  -8.2712822 -13.8500471  20.6606865  15.9142361
 -13.6583529  20.3125591  16.8296795 -14.8430452  20.6350937  15.9988813
  22.4257412  15.1622524  27.6919880  22.9973812  14.3797321  27.6294632
  22.9600239  15.6886101  28.3450050 -16.8466415  -7.0005531  39.3598900
 -17.2736969  -7.0400643  38.5091629 -17.4380932  -6.4115267  39.8513374
  39.1627121 -20.2372494  13.9886971  39.6421242 -19.4245338  14.0905313
  38.9631424 -20.1560135  13.0566835  40.0816612  23.1002178 -20.4653053
  39.9973412  22.3682880 -19.7841778  39.8474350  22.6015186 -21.2547340
   1.4503354  -7.0227714   2.0515361   0.8703195  -7.3395219   2.7936649
   1.7246825  -7.9068360   1.7048384 -26.3400726  20.9676723   5.8272386
 -27.2145138  21.3191147   5.5436330 -26.0019016  21.8515453   6.2228532
   2.8338146 -23.1678257  17.4996490   2.1277564 -22.8405151  16.8998585
   2.5269468 -24.1049995  17.5920238  34.2723770   0.9543712  26.8054180
  34.8459473   1.6985813  26.5969048  33.5343246   1.1458522  26.1637154
  -4.2827640 -21.9557514 -35.3182945  -3.3672965 -22.1371059 -34.8409081
  -4.8571010 -21.8289719 -34.5495338 -27.6479683   4.0877090   3.1447835
 -27.9365234   3.2699392   2.8069119 -28.5618801   4.5991173   3.0435240
  27.4258022  40.0493279  18.9782829  28.0335464  39.2547035  19.0954056
  27.1752796  39.8838844  18.0153580 -10.1724529  13.5339956 -21.1391163
  -9.2267027  13.2807846 -21.2301426 -10.1097221  14.4886646 -21.3818054
  10.7248049  39.5646667  -0.5399004  10.3387976  40.1856194   0.0925037
  10.8844385  38.7624512  -0.0555692 -34.7552071  10.2803793 -21.8857975
 -35.1317329  10.4029388 -21.0294704 -33.7783279  10.2490196 -21.7109413
 -15.4282084   9.3638926  11.6373596 -15.3968487  10.2161007  11.1678371
 -16.0483074   8.8984537  11.0831823  11.4082451 -19.2951393 -44.1138535
  11.3626242 -19.2879982 -45.0925369  11.7679014 -18.3754559 -43.9745522
 -32.1228218   4.9041405  26.1196175 -31.4607563   5.5501428  25.8209095
 -32.4201241   5.3288703  26.9649181 -29.3774929  26.0352402  -1.4334452
 -29.5136414  25.3661957  -0.7614638 -30.0827007  25.7637329  -2.1022472
 -42.7699814 -14.3478308  -4.7696338 -43.1364594 -14.5490465  -3.8920197
 -42.2862206 -13.4865093  -4.6008658  -9.1889677  -6.3129859 -36.7863617
  -8.8757248  -5.5601950 -37.3500443  -8.3061037  -6.4229555 -36.3730507
 -19.0131378  36.3522034 -25.5079784 -18.6291809  36.6431923 -24.6785393
 -18.9243813  37.0657845 -26.0762882  18.2881660 -11.2407427  49.2562981
  18.1829281 -11.0537605  48.3064728  17.7085552 -10.5606384  49.6658897
  31.8222446  -5.0485306  20.4076214  31.8505840  -5.8836503  20.9004192
  32.8098297  -4.9637570  20.1951752  29.6021404   1.7762986  -5.9562840
  30.1059475   2.1785622  -6.6946440  28.8250389   1.4571934  -6.4883971
   5.4060612 -38.0525436  -4.3198171   5.7594142 -38.9191208  -3.8957016
   5.9209332 -38.2492256  -5.1839781   4.6160164 -37.4608345   6.4588842
   5.0471678 -36.9214020   7.1200314   5.3373146 -37.5897141   5.8212972
 -28.4599876 -37.1767311   3.8129590 -29.3296986 -36.8449097   4.1582384
 -28.3707390 -36.4564209   3.0669284 -19.6653595  30.4788017 -29.1909790
 -18.9289913  30.6423206 -28.4724598 -19.2170639  30.9439354 -29.9317665
  32.0468864  34.4181175  20.1479511  31.7238369  33.4633980  20.3781624
  31.6759682  34.8483086  20.9432373 -41.8102646 -27.9447136 -16.0858307
 -42.6187134 -28.0851974 -15.5091209 -41.2272911 -27.5017662 -15.5279922
  26.1269417 -13.3657913  11.4017439  26.1075497 -14.2349548  10.9245911
  25.5170574 -13.5576754  12.1417618 -25.9049301 -40.4635391   2.3324027
 -26.8638687 -40.2882309   2.0279498 -26.0791130 -40.4336929   3.3402200
  -8.9459925  -1.3894266   2.1794896  -8.6963062  -1.2117207   1.2320567
  -8.7365646  -0.4996218   2.5624340  17.7382278   7.3666325  28.3923950
  18.3068352   8.0742197  28.0021076  17.4572296   7.8782430  29.1923084
  -8.5999908  -4.2336926 -16.9838562  -8.6909294  -5.2042899 -16.8430233
  -9.3313770  -3.8915486 -16.4518566 -23.5405426  -7.0251274 -17.4074554
 -24.4084225  -7.3863149 -17.6545544 -23.6698837  -6.9806585 -16.4340630
  16.2857323  33.9560890  27.3687916  15.5872221  33.3095741  27.5658054
  16.6113930  33.6671028  26.4830761 -20.0641632 -38.8788223 -18.0331459
 -19.3180676 -38.8785172 -18.6970615 -19.7321243 -38.0431671 -17.5175018
  -9.8972969   4.0325184  17.8757706 -10.5309401   4.3171530  17.1783447
 -10.3841524   3.2618597  18.2304821  42.1499634  10.2002602  20.3069153
  42.0590096  10.1329279  21.2685108  41.2013855   9.9342136  19.9908028
 -19.7686787   0.5120899 -12.7864676 -20.1245995   1.3885039 -12.5289145
 -20.5756283  -0.0208960 -12.8777981 -41.1293411 -30.5964279 -14.4020672
 -41.9535217 -30.0924549 -14.4621344 -41.4451180 -31.4169502 -13.9260778
 -36.1300316 -16.4963417 -19.0892124 -35.3599548 -17.0008755 -19.4693012
 -36.3252831 -15.8705502 -19.8247757  28.3828583   5.9665194 -24.1581726
  28.3397579   5.4495211 -25.0028725  27.4187584   6.1028357 -23.9763737
 -26.5826321  -0.1656246 -13.8549271 -25.6853657  -0.2896343 -13.5008936
 -27.0661278  -0.9410857 -13.5516090 -30.8092804 -10.1702223  10.0996313
 -30.2522316  -9.5975647  10.7315474 -31.6526470  -9.7115192  10.1612082
  11.6339655   4.4652405  39.3902664  11.8794641   3.5814795  39.0829887
  11.4017801   4.9294515  38.5577736 -13.8275080  13.9661922   1.8625181
 -13.8357000  14.0426693   0.8918788 -14.6918421  14.5034275   2.0353119
 -41.2997284 -14.0420370   3.9795840 -40.6484604 -14.8167734   3.9693439
 -41.9167480 -14.4891548   4.6635847  -7.8790922   1.0004978  18.8900261
  -6.8849635   0.9146920  18.8984566  -8.0444117   0.9251328  17.9720287
  28.2344456 -23.4589233 -33.3683243  27.9596996 -24.3554077 -33.1709785
  27.4868412 -22.9296169 -32.9261322 -19.3784599   3.0182714  35.7040253
 -19.3448334   2.5453641  34.8924980 -18.6614265   2.6625841  36.2451134
  44.4454651  -3.0104098  13.5909786  44.9621773  -2.5166292  14.2429724
  43.5387573  -2.8287041  13.9931908   1.9699134  36.7074547  -1.1611811
   1.8026191  37.7026062  -1.0864387   2.3017881  36.6914330  -2.0749640
   4.8670111  21.1826458 -12.2791843   5.6477575  21.2430172 -11.7267275
   4.1185322  21.1715183 -11.6755648 -33.9456596  26.5216637 -17.8960590
 -33.3442116  26.0613174 -18.5191822 -34.5616531  26.9058895 -18.5436516
   6.1438413   7.1314559 -39.0089645   6.7672901   6.9775767 -39.7201195
   6.3694558   6.4078374 -38.3808899 -14.4896917  -8.9566278 -31.5122528
 -14.1077528  -9.8593864 -31.6375675 -15.4427691  -9.1749964 -31.5440292
   2.5906310  -6.3233523 -13.7988186   2.9139855  -6.1708207 -14.7083540
   3.1696029  -7.0711651 -13.5798731  14.7797556  -1.3738294  25.9578152
  13.8655558  -1.2936364  25.5495491  14.6062546  -2.3427725  26.2922554
 -24.0347404  18.5796852 -35.2769508 -23.5357437  18.3757439 -36.0566101
 -24.8358765  18.0402737 -35.3103447  26.5038013 -12.5284748  19.2638340
  26.9818459 -11.7882633  19.6423569  25.7299366 -12.5317984  19.8686829
  16.2238293  -6.5593143  35.5949631  16.9169674  -5.8698387  35.8733978
  16.5558205  -6.7216172  34.7087936  20.4070206  -8.9179411 -17.5410385
  19.6768627  -8.6095762 -16.9523735  20.6398754  -8.1362038 -18.0422821
  43.8753471   4.7828655 -16.5524788  43.4450874   4.6025305 -15.6681967
  44.6662216   4.2063537 -16.3855686 -30.1329422 -34.4354935  -0.3488074
 -29.2913074 -34.2310982  -0.8119901 -30.5382442 -35.1054878  -0.9775054
  -7.7604442  -5.6938634  -7.0123372  -8.5051050  -5.9639578  -6.4150734
  -7.2163091  -6.5029263  -6.9841061  16.0095272  33.5914154  15.8465652
  16.0459862  34.5569725  16.0645065  15.7636051  33.1591530  16.6231251
 -19.5731602   4.5784469  43.5373764 -19.4274940   3.7540932  42.9884033
 -18.6062279   4.8404565  43.5527077  25.2046890  -2.5806925 -25.7082500
  24.5066071  -2.7822301 -26.4280224  25.3462772  -3.4849155 -25.3936710
  -4.1060710  19.8662510   9.9036293  -4.2702546  20.2118683  10.7870016
  -4.2031102  20.7581692   9.4355631  21.5851593  -6.9768581 -33.2305298
  21.4260235  -6.7628984 -34.1771698  20.6753864  -6.8668451 -32.8577461
  11.8882923   5.1713877   1.3175869  11.7874117   4.7044382   0.4619024
  12.4689722   4.6215301   1.8386585  -3.0814919  19.3470592  42.9255753
  -3.1996667  20.1885414  42.5255928  -3.1848793  19.5445309  43.8722725
 -23.2528591  -9.9069452   1.5827330 -22.5093384 -10.2308865   1.0758699
 -23.6202507 -10.7485228   1.9004012   9.1569395  45.5229416 -12.7480268
  10.0576096  45.2800789 -12.9436111   9.3370323  46.5283089 -12.8275108
 -21.1056328  38.2743683 -24.3707390 -21.4576397  37.3886185 -24.2770481
 -21.3457966  38.8035927 -23.6042995 -28.8861427 -27.6030693   6.3173957
 -29.7769012 -27.7847672   6.6947494 -28.5717316 -26.9537201   7.0125628
  -5.1916294   6.4592986 -20.3834820  -4.7083330   7.2680306 -20.6165657
  -6.0208697   6.6146135 -20.9301395   5.3496618  29.9770756  -9.9990101
   4.3952627  30.1369858 -10.1547432   5.5375857  30.7607689  -9.4083452
 -19.3958950 -14.0496817  -0.4886901 -19.5448170 -14.3382006   0.4440082
 -20.1478310 -13.4750099  -0.7069339   9.6886082 -29.9550972  34.1126862
   9.9368753 -29.2443123  34.7082024  10.2733564 -30.6860237  34.4423714
  18.8157425  12.7718143  20.7109413  19.3016319  11.8606730  20.9387722
  19.1957417  12.8184748  19.8109055   2.5873981  44.7419281 -25.1684418
   2.2800150  45.6887321 -25.0510941   2.6677940  44.7336884 -26.0945606
  28.6963577  -3.3920426   3.0799241  28.3721390  -3.4249485   2.1296651
  29.6656227  -3.4591517   2.9690266   6.8518591  -5.9320850 -30.3380871
   6.5524697  -6.3569708 -31.2240391   6.3762770  -5.1006069 -30.2950611
 -18.4181595  22.2467251  17.3086491 -18.5204296  23.0513020  16.7396297
 -19.2151909  21.7451878  17.0817699 -38.3109245   2.1545143  17.4694366
 -38.3752518   1.6754624  18.3055725 -39.2190857   2.3429563  17.3131199
 -27.7864895  15.4154415 -38.0279732 -27.4859486  16.0443096 -38.7077255
 -27.1142197  14.6753225 -38.1393471 -40.3330879   9.8285828 -16.3940506
 -39.8348618  10.5959549 -16.3014278 -39.8275757   9.3205853 -17.0560493
  39.7542458  13.7011185   8.3694687  40.5524330  13.1406536   8.2785892
  39.9445038  14.3739700   7.7557602  26.0901756  40.0740280  12.1525879
  25.3898888  39.5134735  11.7680397  25.7827015  40.9462547  11.8472910
  32.4770317 -22.2002125 -14.4081440  32.2206879 -21.2238045 -14.4641829
  32.5198746 -22.4656544 -15.3379841 -20.0265846 -40.2644348 -21.3986912
 -20.5900726 -40.6621628 -20.6825352 -19.5314026 -39.6032410 -20.8767967
   6.0417008 -14.7228117 -10.7482100   5.7646027 -15.5899420 -11.1406174
   5.9980125 -14.1685915 -11.5061808 -39.2178345  31.2045460  16.5299549
 -38.8537941  31.1384487  17.4226646 -40.1774521  31.3777790  16.7713795
 -13.5206680   0.6221238 -11.6226654 -13.7588530   0.2851784 -10.7380991
 -12.5675678   0.5332535 -11.5632668  10.6137142  31.6757145 -20.4937534
  10.0954103  32.3914795 -20.9143543   9.9425030  30.9266548 -20.7042637
  -8.5006609 -43.1145821 -12.0656872  -8.0532837 -43.6500092 -11.3913994
  -9.2950220 -42.7941551 -11.6294079   5.0562491  -1.5071819 -27.7735062
   5.1488299  -0.6349016 -28.1890430   5.5771737  -2.0116980 -28.4973431
 -43.7408752   6.9902067   4.3288498 -43.2201996   7.7320609   4.1836658
 -43.2255402   6.4930296   4.9901690  18.7586575 -13.0780725   8.5521975
  18.5152035 -13.3159637   9.4798126  17.9436417 -12.8555403   8.1519098
   9.8724527 -27.2975636 -34.5849380   9.0306530 -27.2403049 -34.0303535
  10.4637375 -26.7590771 -34.0062141  -0.6662822 -33.8875542 -33.6484299
  -0.9369452 -34.4273720 -32.8441582  -0.2232020 -34.6064644 -34.1301651
  -2.3626447  42.8189316   4.9181752  -2.6032927  42.4107971   5.7449312
  -2.7183104  43.7427444   4.9470258   9.6446218  21.2439060  -0.9225017
   9.3528709  20.3105984  -0.6327545   8.7552500  21.6766739  -0.7762958
 -28.5046024  18.1941032 -22.5270195 -27.8761406  18.5755482 -23.1760445
 -27.9404469  18.0639725 -21.7554550  -9.9600554  38.2642860 -29.3186817
  -9.7735643  37.3080902 -29.4286137  -8.9644966  38.6067200 -29.2409554
  23.4100227  -3.5884819   2.3906834  22.7123680  -3.2354438   1.7785428
  22.8304501  -3.9346538   3.0944667 -13.7133875 -20.1511440 -16.6492062
 -12.9329243 -19.6434231 -16.9418736 -13.1100969 -20.9262009 -16.2675343
  -6.4889784 -10.7657261  31.1391659  -5.6064072 -11.2075729  31.1896095
  -6.4549179 -10.1946144  31.9496918  29.1190224 -31.5092335   6.9579935
  28.8900757 -30.5896358   6.7215118  30.0779762 -31.5076180   6.8056202
   6.9122396   6.1217914 -14.0263233   6.7891579   6.1011548 -13.0337162
   7.7289681   5.5013528 -13.9601927  27.4176331  42.6657410  18.1432762
  27.3512058  41.7904358  18.5076790  27.4471340  43.2394066  18.9805527
  -4.1933208  19.5421791 -14.3734007  -4.6990657  18.7285976 -14.3111076
  -3.5942123  19.4587822 -15.1408587  23.5486469   4.1496553  27.9164791
  23.9608421   4.6842356  27.1656532  24.3249226   4.0008717  28.4659958
 -20.3388329 -30.4148560  10.3224506 -19.7015877 -30.2021790   9.5521812
 -21.0746460 -30.6702251   9.7414131  -0.3945318  -7.7052031  -2.8761005
  -1.0038382  -7.1448936  -3.3911297   0.2951942  -7.9155025  -3.5493374
 -25.6446190 -33.2428741  -0.2950679 -26.4959641 -33.5670929  -0.6542030
 -25.4384613 -32.4964371  -0.9227078  25.3395767  16.5290356   2.2178583
  25.9028454  16.2953720   3.0401084  25.2674656  17.4837704   2.4125044
  11.8997746 -11.1390495 -18.4371796  11.5010338 -11.0505104 -19.3128777
  12.7078838 -11.6054468 -18.6521378 -10.6310425  20.8883324 -32.0485191
 -11.0292702  20.2858791 -31.3998070  -9.7216129  20.5515766 -31.9444351
 -15.6558752 -32.4744110   3.1847892 -16.1807842 -32.4220352   2.3180869
 -16.4438572 -32.5307503   3.8029943  16.8311653  48.6585541  -2.4175930
  16.5294323  48.4582672  -3.3595583  17.3236160  47.8224831  -2.2390525
  42.3248749 -12.8140306 -24.7908058  41.5644493 -12.8809309 -25.3422775
  42.9939270 -12.6669321 -25.5212784 -39.1339836 -20.0282822  -1.1649576
 -39.8361740 -19.9151669  -1.8395855 -38.3681107 -20.1571198  -1.7771043
 -19.0288925  19.7621040  -9.8679047 -18.6098785  20.6152058  -9.7628679
 -18.4216213  19.1412258  -9.4558134  35.2331963 -29.7704716  12.0937157
  35.8325386 -29.0561924  12.0212269  34.5185432 -29.3902016  12.6118536
  38.5630302  21.2873783  -7.5905814  37.8749199  21.9663181  -7.7846098
  39.2638741  21.8606548  -7.3144855 -10.8517828  27.7221107   6.9254775
 -10.8840923  26.7736721   6.7115068 -10.2871523  28.0545692   6.2347021
   7.5564938  26.1236076 -11.2200661   7.0599499  25.4090252 -10.7775316
   7.0705194  26.9218311 -10.8100863  23.1456242 -10.5832119  19.8157482
  22.2731686 -10.9711218  19.6133575  23.4589634 -11.1963453  20.4990349
  -9.6220274  -6.0971580 -19.6671448  -9.1334858  -6.1901875 -18.7297535
 -10.2292376  -5.3566022 -19.3590031  -5.6197224 -45.3181992   5.6112638
  -6.4804745 -44.8867111   5.3087735  -5.8711452 -45.5988846   6.4914460
 -41.9955559  19.8963108  -1.5773082 -42.7536278  20.4602032  -1.6297139
 -41.6657753  19.7806072  -2.4779747   4.7229905 -42.0519257  19.7478867
   5.2731247 -41.7805710  20.5503807   4.7666044 -42.9987831  19.8851509
 -12.4142895   0.6274440 -44.3881607 -13.2416458   0.5475733 -44.8809471
 -11.7953262   0.9368215 -45.1350098  36.8248672  16.4652672   8.1712542
  35.9197693  16.3363152   7.8003001  37.0988007  15.5011787   8.1082468
  -4.0930924 -46.2780952   3.8040817  -4.6760583 -45.8286324   4.4899287
  -4.3041019 -45.7255325   3.0289369  13.9172382  24.5801411   5.6848831
  14.5193520  25.0278873   6.3936825  13.3836727  24.0408878   6.3343148
  27.2213745  -1.0522593   3.4873922  27.9463272  -0.5082343   2.9518647
  27.8676071  -1.8561960   3.5651414 -18.0114212  34.2473450  29.9191818
 -18.4229412  33.4405479  30.3239975 -17.6900787  34.6949921  30.7244091
  14.3049078 -23.9110165  10.2829714  14.9623213 -23.2469158  10.0830898
  13.5949707 -23.3615437  10.6327753   5.2661195 -36.7147446  22.8500862
   4.6963339 -36.9630165  23.6698666   5.4235864 -37.6230240  22.5425930
 -23.0455914  16.9405651   6.6500235 -23.9494152  17.1906128   6.5056639
 -22.6980343  17.8399544   6.8447900 -42.5697784  18.1763973  13.4794989
 -42.9973335  17.7702713  12.7083092 -42.0553398  17.4265804  13.7980061
  25.7350044 -26.9919434 -18.2125301  26.5693302 -26.8724804 -17.7052822
  25.3422203 -27.7162743 -17.6440067   6.8288465 -20.7071629  17.5428963
   6.5808015 -21.5312824  17.0461674   5.9626703 -20.4063377  17.8820858
  -3.6596634   0.5499060 -23.7388344  -4.2973719   0.6223094 -22.9668846
  -3.4473760  -0.4112470 -23.7333412 -36.6549149  27.3658905   0.5278320
 -36.2084389  27.6284828  -0.3270809 -37.5576363  27.1446934   0.2163575
  -1.9574540  18.3207626  10.8260822  -1.1675757  18.9389496  10.8115101
  -2.6081023  18.8730145  10.3242140  31.3009033   8.7030458 -10.3441544
  31.2428284   7.8136654 -10.7404833  32.0829849   8.6774092  -9.7780333
 -28.3686924  15.0122547   6.4913669 -27.6000042  14.8463278   7.0768952
 -28.8059711  15.7796879   6.9359026  37.0831528  13.6450968   8.4024048
  37.9780693  13.2632647   8.3570509  36.8467560  13.3536062   9.3124676
   7.3588562 -28.9106865  33.5320625   8.0913219 -29.5422993  33.6380005
   6.7623148 -29.3088074  34.2562714 -37.1967201   6.2761989 -34.3226166
 -37.4062042   5.4338598 -34.8285370 -37.3852463   5.9394588 -33.4229584
 -41.3708725  17.6579704  -7.8962708 -42.2609253  17.6370602  -8.3986931
 -40.8746681  16.9566002  -8.4404049  -7.6371298 -26.4012089 -16.9313488
  -7.7294707 -25.4279919 -17.0779819  -8.3735971 -26.7310715 -17.4691219
 -22.1004772  23.6645851  24.4524994 -22.6878529  24.4279270  24.7101612
 -21.2642021  23.9502811  24.8653927  11.4624615  -3.0414288 -30.9819088
  12.1078091  -2.4252028 -30.7769127  10.9895220  -2.5473750 -31.7036381
  11.8681917  19.5937138   6.5211530  11.7335749  18.7034245   6.1659446
  12.4006653  20.0346622   5.8948207  25.3110600 -36.5572548 -30.7481842
  25.0622978 -36.2229958 -31.6809940  25.3211613 -35.7035751 -30.2455540
  -1.8588027  -0.1467580 -36.8933678  -1.9242543  -1.1170400 -37.0290337
  -0.8344874  -0.0628675 -36.9132347 -39.4104958 -22.6882839 -10.9990234
 -40.1050110 -22.1923580 -11.5103340 -39.0934639 -23.3606777 -11.6107254
   9.7056437   2.5657284  46.4354439   9.7091951   3.5480688  46.5888062
   9.1977758   2.2846422  47.2295876 -30.7725849   9.6912060   3.8723605
 -30.4015045   8.8546658   4.1406116 -31.5233669   9.3790512   3.3341212
  38.1638527   8.2656975  -6.0162001  38.3227119   7.3363395  -6.2170062
  38.7484894   8.7490120  -6.5827565   6.2814507  -8.7342501  27.8083706
   6.9837298  -8.0335484  27.8328285   6.5109363  -9.2274818  26.9950962
  -9.4191360 -12.3503428   8.9001579  -9.6425829 -12.0957184   7.9615016
  -8.4279480 -12.2959318   8.8267422 -30.4332523 -39.0776367 -11.5531340
 -30.1921024 -39.8817062 -11.0872669 -29.8508587 -39.0264587 -12.3082008
  11.5436182  -6.3709316 -10.2394648  11.4901657  -7.2767720 -10.5811043
  11.5753069  -5.8467622 -11.0560770 -17.4470234  34.9535637  -7.9560280
 -18.1709843  34.3669319  -8.1769991 -17.2296028  34.7238045  -7.0564895
   1.8321362  19.0634003  27.6970291   2.7301583  19.1712990  27.9677048
   1.6295066  19.8930359  27.2438183  15.6527615  14.3606825  23.0623531
  15.0651464  15.0159321  23.4405785  15.1569166  13.8474970  22.4465809
  -3.1105602  25.7636356 -36.9957924  -4.0045152  25.8807030 -36.7059250
  -2.8822837  24.9854622 -36.4122314 -25.8739910  29.4873199  22.9918346
 -25.9711189  28.6233120  22.5647449 -25.7076511  30.1065464  22.2742214
  -9.0060196  16.0647526   5.5180502  -8.0440130  16.1281567   5.2670722
  -9.2171221  15.2721624   5.0560355   5.2868881  -4.3457661 -50.0312576
   4.3841906  -4.1930032 -50.2889404   5.6696906  -3.5069885 -49.8008575
  -8.1854763 -13.3873234  27.5816593  -8.9317284 -12.9992390  28.1385365
  -8.8028870 -13.8596687  26.9460087  40.7253189   9.8572750 -10.5992708
  41.1131554  10.3033648 -11.4527035  41.4055290   9.2014284 -10.4650650
  10.6926126 -12.3427944   4.6184115  11.6050310 -12.6687021   4.3863373
  11.0251198 -11.5262880   5.1610680  16.8768368  26.3452282 -27.8001652
  17.3604259  26.8944912 -28.4168282  16.5538540  27.0282345 -27.1510830
  35.4575806  13.3986607 -28.3790340  34.9646263  13.5517035 -29.2334805
  36.2362442  12.9367838 -28.6850891  -5.6014452   5.3923903 -46.4027786
  -6.5261154   4.9772129 -46.4843292  -5.1955953   4.8344584 -45.7511292
 -37.9044952  22.1453991  20.7584896 -37.1778564  21.4502029  20.8514709
 -37.5514679  22.7693214  20.1778793  -6.5986152   1.6987770 -41.5294685
  -7.4596338   2.1531105 -41.5125275  -6.7643061   1.0892032 -42.2984657
  11.4228020  42.0825958  -8.1375961  10.9469509  42.3705101  -8.9694643
  10.6652708  41.8162384  -7.6392941  23.1430111  -4.7400851  23.1175632
  23.3682308  -5.6946774  22.7877483  23.8883934  -4.7189040  23.8082275
   4.7907801 -23.0531731 -41.3581123   5.5914154 -23.4838543 -41.8995399
   5.4190331 -22.7061062 -40.6601562  34.1684036  -6.7132564  12.1650963
  34.3059959  -7.2350502  12.9919281  35.0325890  -6.8048573  11.7449894
 -37.9269218 -21.3484325 -16.2518425 -37.6203842 -21.9594326 -16.9534435
 -38.6768532 -20.8971195 -16.6049576   7.3746481  27.4490852 -24.5586338
   7.9088316  28.1483898 -24.9587688   7.5097938  26.7414436 -25.2347279
 -24.9110546 -34.4163437  12.9226274 -24.4095325 -35.0597382  12.3000774
 -24.6018600 -33.5598717  12.5299616   7.1587853   9.1963778  37.7807312
   7.8310914   8.5171480  37.7913513   7.2585850   9.6601639  38.5995941
  25.3127384 -22.3750954  20.0624981  25.7807941 -21.5549107  20.1637955
  24.5866070 -22.2323017  20.6983528  26.7071381 -17.1624393 -37.0007133
  26.4604702 -16.4836597 -36.3004189  27.2015629 -17.7787914 -36.3837814
   2.8083847   0.7872883 -23.6968479   3.4615781   1.2967598 -23.1177502
   2.4622226   1.6055056 -24.2064342  -4.9214797  -9.1709948 -30.9861679
  -5.7989020  -9.6368656 -31.0022430  -5.1995697  -8.3442698 -30.5426636
 -33.9976921  21.3111649  -3.9395070 -33.7091560  21.3611641  -3.0331018
 -34.7620621  20.7598972  -3.8500004 -41.7564163   6.5050035  30.9136276
 -42.2563515   6.8046594  30.1133366 -41.7639389   7.3903027  31.4109745
  -2.1062920 -44.0970573   7.6478872  -2.3993759 -45.0768700   7.6233530
  -1.2257594 -44.1898956   8.0062599 -40.0249748  13.0953007 -11.0208416
 -40.3468246  13.8425884 -10.3797522 -40.1386528  13.6096897 -11.8811064
  27.1468334 -22.7381725  33.1831703  26.3945484 -23.3470573  33.4020424
  26.6646328 -22.0036087  32.6800423 -12.3096352  10.5009422 -43.8902016
 -12.3183641  11.1282787 -44.6631546 -11.3279095  10.4871254 -43.8006325
 -22.9303589 -27.3482990 -23.8459835 -21.9970112 -27.3274059 -24.1961231
 -22.8993187 -26.5539780 -23.2671413  38.1367493   0.8755316   6.8030782
  37.2190247   0.6969729   6.4988537  38.1148300   1.8604814   6.9310999
  17.9874325 -28.9619141  21.1380939  18.8629456 -28.7397175  20.7376137
  18.1797695 -29.8272419  21.5191650  39.5142479 -31.6668301  15.5131960
  39.4978371 -32.3702164  16.1826706  38.7225227 -31.8868980  14.9860735
   7.6459537   6.2081375  30.0361137   7.1555381   5.9709649  30.8772240
   6.9248080   6.3850393  29.4722462 -34.7839508  31.2033596   5.2985940
 -34.3070984  32.0459251   5.3819270 -34.9664459  31.2716427   4.3139749
 -44.3757896 -11.5711889   7.5438886 -43.7743759 -11.6400805   6.7808781
 -44.5561562 -12.5311079   7.5967717 -20.8033695  -6.1698117 -40.3737564
 -20.4251556  -5.6332512 -41.1215782 -20.9953327  -5.3849473 -39.7596817
   6.8573461 -43.9687386 -29.7734394   6.6058397 -43.5784645 -30.6437531
   6.9248281 -43.1232452 -29.2675190  -1.4725991  26.8222141 -20.8492832
  -2.3262532  27.3233337 -20.8834991  -1.0076752  27.4372196 -20.2175064
 -37.0270729  11.7864256 -13.3110676 -36.4256058  11.8754492 -12.5524683
 -37.5478668  11.0026073 -13.0252151  20.4370346  27.7598667  16.0753975
  20.4961720  27.7376595  17.0923481  20.2996407  28.7438641  16.0188675
 -36.7807579 -25.2180672   9.0360479 -37.1457443 -25.8796864   8.3639212
 -36.4118309 -24.5158730   8.4590521  29.8746243 -24.5264893  -5.3595982
  30.2874889 -24.8747978  -6.1843314  29.6315765 -23.6281967  -5.7232423
 -10.0597830 -13.1347895  -0.2787946 -10.3442087 -12.5732965   0.4386193
  -9.3476171 -13.6726017   0.0680838  37.8251038 -20.4792614 -13.4514408
  38.1054344 -19.6344318 -13.9166374  36.9339104 -20.5990925 -13.8897982
 -11.3160114 -20.5793991 -13.3625259 -10.6236734 -20.6120586 -12.6063766
 -11.1129274 -19.7097282 -13.6869640   7.2638726   0.3818995 -34.9855118
   7.9817472   0.5766406 -35.6372337   6.5959249   0.9825553 -35.3514175
 -25.7659378  16.1485100  10.4184961 -25.8437710  17.0548840  10.8051434
 -24.9333115  15.8191023  10.8069677  25.3330975  19.2027760  -2.2263365
  25.4621677  19.8147125  -1.5164022  26.1841488  18.8556423  -2.3439491
  31.0005760 -21.0362740   7.5848522  31.2407551 -21.4057255   6.7069364
  30.7046471 -21.8733559   8.0306082  21.2236195  11.1099558   5.5611916
  20.4802666  10.8355017   4.9866123  21.6147442  11.8322639   5.0325332
 -25.5450058 -14.0904703   6.6810565 -25.0139771 -13.2542772   6.8876672
 -26.1683044 -13.6619673   6.0454698  21.0930195 -15.8621292  21.2492218
  20.1737518 -15.9944773  21.6459236  21.3789387 -16.8070793  21.1907635
  21.8023872 -19.9462032  31.3087292  21.5106964 -20.2448711  30.3937359
  21.1755314 -20.4192200  31.8814049  36.0216064 -23.7695942  11.2342463
  36.6896248 -23.6291351  11.8964491  35.3377419 -23.0343533  11.4498091
 -13.0225201 -18.1175652  36.9192238 -12.4175234 -18.8845310  36.7923584
 -12.5766497 -17.4538326  36.2917595  33.5881805   0.4456834   7.4266639
  33.7722282  -0.4408196   6.9889865  32.6115799   0.3497495   7.5277390
 -19.3195438   8.1804371  40.6756020 -18.7240715   7.9373507  41.3817596
 -18.6508141   8.1464109  39.8855629  14.3895769  30.9635677  -6.7650371
  14.6773825  30.3806973  -7.5124631  14.7954168  31.8296833  -7.1378675
  23.4542274 -15.7867146  30.9876804  23.0440464 -15.4627066  31.8555870
  24.2544441 -15.3090591  30.9934311 -35.9192047  -3.7745283 -32.4839821
 -36.1751366  -3.8479629 -31.5180187 -36.8177528  -3.4382846 -32.7823715
  41.6214981 -24.6510601  12.5025578  41.5450821 -24.3346367  13.3894520
  42.1557503 -24.0376225  12.0676050 -14.0368271  19.2366123  18.1770725
 -14.2112341  19.8114204  18.9597263 -14.8730783  18.7465286  18.1406174
  23.5882912 -11.7573557   0.9317325  23.0035229 -12.3036528   0.3313385
  24.4298382 -11.8935633   0.4035165 -15.1879244   2.6066756 -26.3831768
 -15.9154415   2.0172787 -26.0073719 -15.7261753   3.4699037 -26.3102131
 -19.2593994 -16.0521412  25.0145512 -20.1911736 -16.2230701  24.8631706
 -19.0599308 -16.6141014  25.8258114  13.2429905  14.5087118 -15.5800333
  13.7348719  14.5240250 -14.7001123  13.6195230  13.7281866 -16.0167770
  18.3098927 -13.9979076 -24.2381516  18.1714439 -13.2571306 -23.6506557
  17.9608822 -14.7330494 -23.7233391  23.7165909  -2.4072464 -36.3642921
  24.5024567  -2.9374580 -36.5046921  23.2281418  -2.5571744 -37.2514114
  21.4328289  18.4348736 -11.9043112  20.7685642  19.0203762 -12.3052883
  21.5233669  17.7991714 -12.6826878 -29.4402752  23.6857243 -20.5482235
 -28.9470825  24.4984722 -20.3675747 -29.2049580  23.5425491 -21.4580898
  21.2154350   6.4703708 -13.7865582  20.8394260   6.1157513 -12.9927588
  20.4903870   7.0039978 -14.1233139  16.5768719 -22.9808636  13.7825527
  16.9956493 -22.8609047  12.9099121  16.7698441 -22.0896969  14.1647949
 -31.8032799  16.7434788 -20.6545429 -31.6756268  15.9320841 -20.0594139
 -32.8007507  16.6758976 -20.7983208  22.8176155  36.0995979   6.3629169
  22.7432022  35.3535690   5.6992769  22.2627029  36.7437286   5.8788509
 -21.2423782 -12.7192316  -5.3410273 -20.4695911 -12.1681290  -5.3055277
 -21.1827259 -13.1803226  -6.1873851   3.2851231 -21.4648666 -16.3869724
   2.6725705 -21.9646378 -16.9400635   2.6340475 -21.3134613 -15.6410131
  -2.8559065  -9.1685314  11.2466106  -2.0300786  -9.0327377  11.7475204
  -3.5053446  -9.1419201  12.0279226   2.0941482 -32.1732025 -23.9793072
   2.5556455 -31.3432941 -24.2648239   2.7146838 -32.8449707 -24.3771629
 -40.7044449 -25.6405640  -5.2613716 -41.6017418 -25.2941265  -5.1312709
 -40.8453293 -26.5884686  -5.0576506  29.3985405 -14.3768082 -37.1748238
  30.3643951 -14.1773195 -37.2966766  29.1363201 -13.5918398 -36.5789757
  20.1023331   0.4177071 -21.6841850  19.8863144   0.6112020 -22.5843487
  20.8408051  -0.1921394 -21.7501488   0.4332369 -18.5532093  20.1499882
  -0.5044680 -18.5927544  20.3708210   0.7966219 -18.8089828  21.0353947
 -21.4621868  -9.9610529 -25.5264606 -21.5068626  -9.0453749 -25.5304050
 -21.4873486 -10.2659597 -24.6369762  28.0035896  -4.3896270 -11.1736002
  28.8991222  -4.7318888 -11.2410498  27.6572895  -4.5272102 -12.1048450
 -33.5698547   4.5226693  -9.7927456 -34.1116219   5.1588569 -10.3242025
 -33.9058342   3.6503963 -10.3074856  14.7456951 -23.4576683 -26.3948517
  14.3945675 -22.7772083 -25.7751904  14.7394094 -22.9561024 -27.2198772
   8.8436899 -21.5170631 -35.2373848   7.8869772 -21.3096466 -35.0506058
   9.2156544 -21.4030457 -34.3256493 -36.1547546  19.7982635  -6.4755702
 -36.1395073  19.8048401  -5.5382557 -36.5851288  20.6711578  -6.6784978
  25.3737488  26.4915047  12.1810980  25.9696770  26.4311752  11.3826551
  24.6429329  27.0154972  11.7240963 -22.9244747 -38.1228905   1.8209513
 -23.8202362 -38.4523506   1.9726440 -22.9416637 -38.1907005   0.8359487
  -9.7551279  -4.1526594  12.3472815  -9.0706062  -3.8099978  11.7238913
  -9.2737045  -5.0079813  12.5294237  11.7191267  20.6029968  20.6491795
  12.3860378  21.1442299  21.1462593  12.1812954  19.7698269  20.7217350
  -5.2170501 -39.0304222  26.0746250  -5.6438646 -38.2548523  26.5018597
  -5.0118961 -39.5323715  26.9077606  35.5792503  26.6845055  -7.0985999
  34.8256989  27.2885990  -7.1047435  35.2571106  26.0338459  -7.7386074
  -3.4069479  -6.4016976 -47.6606598  -3.2455153  -6.9451251 -48.4721413
  -2.5729020  -5.8735261 -47.6819572 -21.2072906  -3.1119578 -26.8729172
 -20.2944908  -3.3945763 -27.0821877 -21.0871143  -2.1326680 -27.0468407
   8.4831648 -23.3301125  -6.0790839   8.9141674 -24.0734081  -6.5553222
   7.8897395 -22.9114552  -6.8013711  38.2629128 -14.7941999  24.4309425
  39.1825752 -14.3938761  24.2678013  38.2214355 -15.4082508  23.6916752
  -6.8499341 -19.3244457  38.6090126  -6.9834323 -19.4067383  39.5670242
  -7.7389331 -19.1783047  38.3181267 -18.9837284  10.6248236 -34.1746788
 -19.6530247  10.3370752 -34.8180466 -18.5520554  11.3070879 -34.6848030
 -21.8937492   5.4606090 -10.4929523 -21.5032539   6.1767106 -11.0314445
 -21.9238415   5.8110590  -9.6059647 -19.2724113 -39.4559212   4.0507178
 -18.9182148 -40.2526245   3.6311896 -18.4640713 -38.9076843   3.8819280
  31.9228420  -8.8161545  37.2199478  32.9207306  -8.8477058  36.9680862
  32.1016006  -9.3462276  38.0599594 -31.2062359   1.6892438  39.0852890
 -31.9906387   2.1814091  38.8565102 -31.5841560   0.9100477  39.4869537
  -3.6337714  28.4278488  11.4960299  -3.9554713  28.9513721  12.3243980
  -4.2241888  28.8649921  10.8762350  15.4035664  -5.7920895 -35.6653938
  16.0961533  -5.1361923 -35.3265228  14.7465649  -5.5447326 -34.9070778
  15.4102077 -31.6061001 -21.2991829  14.4540377 -31.3683491 -21.4103527
  15.5204086 -32.3547630 -21.8980503  10.5368605 -13.5089083  10.1995363
  10.7070522 -14.0012884   9.3362112   9.5334673 -13.4976416  10.1554432
 -14.2732439  39.2514114  -8.6360016 -13.9243164  38.8957405  -9.4755487
 -15.0396633  39.7455978  -9.0268660  31.6167927  21.7955322  10.2189894
  31.8679714  20.8197575  10.1296139  32.3761520  22.0280342  10.8498993
   6.1301742 -28.2438831  36.8178520   5.1159081 -28.3296394  36.9984093
   6.1883268 -28.9690781  36.1512413  27.9184532  14.9142361  12.7325602
  28.3981876  14.5768700  11.9546146  27.7857018  14.1336689  13.2337198
 -16.7888241  15.5053091 -13.7476511 -16.4607086  16.0035706 -14.4666185
 -16.9717484  14.6195974 -14.1362057  -1.4160550  46.0316391 -14.3522453
  -1.8602138  46.4014320 -15.1303558  -1.6682298  45.0804901 -14.4912090
 -29.6231899 -17.5183220  20.3779736 -28.6651382 -17.4617119  20.1777229
 -29.7150593 -16.7383232  21.0107708 -20.2941742 -28.6124153  19.2122536
 -20.3814983 -27.6571808  19.3658104 -21.2475777 -28.9110336  19.1229954
  39.6048088  28.2614498  21.4707260  39.9081116  29.0365677  20.9555893
  39.0803871  27.7529202  20.7846489 -34.6836357   3.8317208  -7.1943870
 -34.6751251   2.8003221  -7.3650498 -34.3554726   4.1192746  -8.0585604
  26.8147316  19.2904663 -23.9703884  27.7860184  19.1810646 -24.1131649
  26.5972404  18.9779224 -24.8969326  43.3510284 -16.0639954 -20.6350632
  44.0986557 -16.3950615 -21.1571484  42.6339912 -16.6601944 -20.8377380
  22.1894436 -19.8945007 -20.5985184  22.9438820 -19.6653385 -21.2193336
  22.5879345 -20.2436047 -19.8299065  22.3815060  20.1217098  13.0221357
  21.4827232  20.0231152  12.5250454  22.0247021  20.6168499  13.8008461
  18.1523857  17.8599663 -28.7570591  18.6969757  17.9768639 -29.5033054
  18.4676590  16.9582348 -28.4352379  24.1671448 -14.3136225 -41.5474052
  24.5495625 -14.8464937 -42.2731628  24.5207005 -14.8050776 -40.7702408
 -44.2092018 -14.0119343  -2.3254004 -44.0776482 -13.2799549  -1.6782078
 -43.8288765 -14.7368984  -1.7150364   8.7829294 -37.5888367 -19.0999737
   9.2431850 -38.1140442 -19.7759380   8.4336500 -38.3591194 -18.5093670
   4.3813438  15.2060041 -22.9509029   4.8262029  15.8213291 -22.3040600
   4.2974734  14.4377985 -22.3017330 -12.8182831 -38.9013863 -17.6002979
 -12.2452488 -38.2827339 -17.1378326 -12.1576881 -39.6214714 -17.8030472
  39.9142914   5.0732126 -31.5992641  39.7599716   4.6069555 -32.4749107
  39.1769180   5.7429762 -31.7652454  15.0000296  22.9187737  20.9290409
  14.1715984  23.4342594  21.0312920  15.0732746  22.9300690  19.9415436
 -10.9363356  40.3831367 -27.9991322 -10.5577822  40.7540512 -27.2140179
 -10.3012781  39.7819443 -28.3184738 -23.3099480  35.7605133  16.1803493
 -24.0592995  35.0542870  16.2729931 -23.8229141  36.5919418  16.3505745
  36.2950058  -1.3809131  29.7501087  36.0276947  -0.5569693  30.2460060
  35.4960403  -1.5099875  29.2197227   8.9481325 -23.7454357  12.0209999
   9.0788507 -24.1330185  11.0959911   9.2176762 -22.8425655  11.7541895
 -15.2952356   2.7894862  24.6271114 -14.8510914   3.1261871  23.8559952
 -14.7968140   3.4283357  25.3201008 -26.5515804  15.1438522 -15.7658138
 -27.2538223  15.5234070 -15.1842413 -27.1926556  14.6914434 -16.4020424
 -41.0612144  -1.6708946  27.5633316 -41.0223656  -1.9887626  28.4999714
 -41.9368362  -2.0513968  27.2786522  18.5337944   1.7824455  24.5814762
  18.7433453   0.9039282  24.2557163  17.5293388   1.6518669  24.7752190
  -7.8326907 -23.4235172 -20.8220406  -8.2548075 -24.1957169 -20.4995937
  -8.4890165 -22.7298450 -20.8048382 -11.7739897   2.0890589 -22.3596191
 -12.0678749   1.1571788 -22.5643425 -10.8471918   2.0797024 -22.8096142
  28.0379963   9.8250284  14.6577187  27.8875885   8.8497343  14.4155664
  28.9887753   9.8226557  14.9174452  14.7920752  48.8309097  -9.5107822
  14.9124584  47.9221878  -9.8731613  14.1109915  48.7474136  -8.8925314
  35.0427284 -11.3394909 -12.5212736  35.2642326 -10.3740292 -12.4316835
  35.8010750 -11.7327852 -12.0501528 -38.6000366   3.4060514 -14.0268631
 -38.0781517   3.8944261 -13.3262911 -39.4585304   3.4635713 -13.7438383
 -15.0140066  20.1222992 -44.6901970 -15.8220558  19.6880798 -44.2849579
 -14.3942642  19.3979702 -44.5793076 -25.4383831   1.5312678  -8.0393372
 -26.0243874   2.0914669  -8.5508919 -24.9859009   1.0222996  -8.7670326
  33.6724548   4.0814624   8.8449163  32.9770088   3.3558314   8.7868748
  33.1962814   4.7712512   8.3181810   6.3817401 -20.0152454  37.5342598
   5.6312366 -19.9980469  36.9393578   7.0857539 -20.0275993  36.8712158
  -5.4931793  36.5779343  34.6293030  -6.2539296  37.2924309  34.5265884
  -6.0121660  35.7698631  34.3980598  37.0628166  29.2571049  -4.4183035
  36.9857483  30.1448650  -4.0008855  36.1268501  29.0012836  -4.3721809
 -21.3072147  -1.1593895  29.4754429 -21.3407421  -2.0463054  29.0063839
 -22.2835712  -1.0662906  29.6955395 -30.1753864  -8.6096878 -35.1623611
 -29.9242477  -8.0169659 -35.8936615 -31.1130199  -8.2625465 -35.0422173
  -8.7067194 -34.4340630   8.8127899  -7.9759169 -33.7873764   8.8170280
  -9.2408199 -34.0398903   9.5949364 -13.1942606 -13.0823154 -20.0500469
 -13.3930464 -12.7996788 -19.1251926 -14.0301762 -13.0229635 -20.4687862
 -18.5160923 -40.6746521  -2.3445387 -17.9657269 -41.2465782  -2.9726090
 -17.8542900 -40.1513481  -1.8922236  25.3160000  24.6215630  27.9934902
  26.0195675  24.0509262  28.1750622  25.7060165  25.5679703  27.9771481
  -2.2086062 -37.8071251 -16.9450645  -2.0550830 -37.3590393 -16.0502014
  -1.5472006 -38.5464516 -16.8113708 -20.7775421 -38.8503075  -3.2115002
 -21.4928303 -39.4137154  -2.7908108 -19.9796219 -39.2647171  -2.8487146
 -32.3719254 -25.5749969  -7.1402650 -32.6792679 -25.6191330  -8.1060505
 -32.5297890 -24.5663662  -7.0127206 -40.2135315 -28.2757816   6.7099929
 -40.9248581 -28.6770535   7.2587547 -40.0945244 -28.9894047   6.0374565
  17.2303658  20.0175266  30.4972668  16.3761654  20.3643284  30.1424255
  16.9908180  19.6749630  31.3805065 -28.5568333 -31.3831253 -15.5550699
 -27.8852978 -32.0955582 -15.5111971 -28.2135334 -30.8102665 -14.8401489
  14.9209270  -2.0520937 -32.8123627  14.7344208  -1.3490964 -33.4759521
  15.7993155  -1.7868646 -32.5190849  26.2014713 -10.4922066   6.1832256
  26.1668072  -9.5463982   6.0119553  25.7044582 -10.8292265   5.4219341
   2.0933702 -46.6976738  24.2917290   1.4503652 -46.7677879  25.0195560
   2.3747478 -45.7669487  24.3604679  41.6251564 -20.7967167   5.6918325
  40.9979172 -20.6301346   4.9942908  42.3620491 -20.1496754   5.5404487
 -34.1973114 -12.7253895  31.1399364 -33.8427124 -13.6010790  31.3921890
 -34.2155190 -12.8788786  30.1242123 -30.4769974 -13.5446606  -8.5982580
 -31.2112274 -14.0660810  -9.0709095 -30.9470940 -13.4247952  -7.7529035
  -9.4460630 -34.0270042 -12.4314680  -9.7707510 -33.1464767 -12.1500950
 -10.3183050 -34.4955177 -12.4268990 -26.7028255  -1.8502699  -1.9349979
 -27.4276505  -2.2274315  -1.4567008 -26.9176483  -2.0495241  -2.8612597
  38.7476883   3.0897789  -3.9132223  39.0109406   2.6449742  -3.0649364
  38.5213280   3.9957733  -3.5128012 -32.4204597 -30.1794624  16.2607269
 -32.3023872 -29.3999615  16.8404560 -31.7102928 -30.0483189  15.6235590
  16.4086552 -25.5642281  13.9270763  16.5639973 -24.5748291  13.8265390
  16.2179375 -25.5740623  14.8857374 -28.3269596   4.5568838 -41.7160225
 -29.2904091   4.5569410 -41.6154099 -28.1812553   5.5130110 -41.7430649
 -28.7577152 -20.0554428  26.2648849 -28.0724983 -19.5828381  25.6820507
 -28.4307556 -19.6196899  27.1237087 -14.1386909 -27.6263885  -3.2205899
 -14.1522655 -26.6520538  -3.3832676 -13.2413492 -27.6806831  -2.7981732
  41.5524712 -32.0752106  -5.3794746  40.8490639 -31.7731838  -5.9832377
  42.2231598 -32.3481636  -6.0336857  14.9236126  19.3275967  36.5419617
  14.8016338  18.7289867  37.3353691  14.6359186  20.1359310  36.9845810
 -15.3314037 -31.7063503 -17.5840645 -15.9840622 -31.2453308 -18.1566353
 -15.1213684 -32.4261627 -18.2207680  34.4474792 -16.1283531 -18.4408092
  33.6189613 -16.0394688 -18.9143276  34.3154831 -15.5124311 -17.7130966
 -17.0226574 -12.6718025  -3.6012194 -16.5495319 -11.9121380  -3.2455935
 -17.1320419 -13.2109833  -2.7259197   5.2541838  44.1845551  -1.0697329
   5.8175912  43.5722427  -0.6285931   4.4210010  44.1826591  -0.5911245
   2.4846802  47.0294685 -19.7131443   1.9819927  47.5653839 -20.3081207
   2.7150905  46.2663574 -20.2496262 -32.4050140  18.4296684 -17.4040031
 -32.0249977  19.3108673 -17.2944431 -33.3434334  18.6458225 -17.2401600
 -23.5562916 -11.2710238  -9.1617622 -22.9109974 -11.1161985  -8.4317894
 -23.8453789 -10.3582726  -9.3605604  -4.3706079  25.1909466  -4.6355305
  -5.0667973  25.8188343  -4.9313617  -4.2476993  25.4860821  -3.6692328
  13.1648321 -35.8632698 -34.0709457  13.5310230 -36.7019005 -34.4606667
  13.4505959 -35.1864548 -34.7010078 -18.1877079  38.9417686  -5.8320351
 -18.6144276  39.3640785  -5.0892863 -17.2514267  39.0723686  -5.6840763
  19.4846992  -2.8366387   1.2587551  18.6527328  -2.4859259   0.8332241
  19.2175159  -3.6699667   1.5781066 -12.9579430 -38.1113930  -8.0934782
 -12.8218899 -37.8383751  -7.1631374 -13.8045874 -38.5726509  -8.0330210
 -35.1340332  -6.9919829   0.9042156 -36.0864296  -7.1278486   1.0518008
 -34.8613472  -7.9232359   0.8560407  40.1050339   2.7808239  31.9729633
  39.8848228   3.7562089  31.8803272  41.0854378   2.8643928  32.0267830
 -42.0430260 -12.0945148 -22.6608524 -42.0914993 -11.5142202 -23.4562168
 -41.6253433 -12.9074669 -23.1266060   6.6604323 -11.3790407 -41.7533760
   7.4398870 -11.5823441 -41.2427788   7.0602856 -10.6467104 -42.3534851
 -14.2625780 -25.3920479  28.3793755 -14.5843744 -25.5568314  29.3087883
 -14.5483389 -26.2687569  28.0101986  -0.2863285  18.6299019 -30.8078327
  -0.9802458  18.3398781 -30.1815128   0.4481218  18.5882530 -30.1320972
  27.6533756  25.0070610 -19.4574242  28.1814461  24.2196617 -19.1815815
  28.4276695  25.6139221 -19.6684589   9.3689718  34.9364853 -13.3898621
  10.3549089  34.8481674 -13.4915781   9.2447252  35.8610191 -13.6933661
 -27.5003529  -7.7672195  29.9217758 -27.9662285  -8.5370941  29.5489731
 -27.7921047  -7.9452720  30.8316345  21.7018490 -34.8086014   2.0158620
  22.4756584 -34.4257812   1.5818671  21.8485813 -34.5687256   2.9333057
  34.3400574  -4.2775750  41.3221283  34.7911263  -4.1603451  40.4579544
  35.0443115  -4.5787621  41.8711815  14.8870392 -35.9417076 -27.4698677
  14.9664421 -36.2971649 -28.3920403  14.3214722 -36.6869011 -27.0877190
  43.9522324  -6.7024975 -25.0367260  44.3352623  -5.9649568 -25.5987148
  44.7398872  -7.1421971 -24.8433685  19.8586826   9.5490026  31.5403957
  20.2172546   8.6775331  31.8766003  18.8885441   9.2678518  31.5885334
 -17.9166126 -22.3537674 -22.7700958 -17.9960442 -23.1279869 -23.3227081
 -18.7608509 -22.4105225 -22.2546387  14.2865067  12.0312786 -32.1327629
  15.0394602  11.4087334 -31.9565163  14.7495880  12.9034157 -32.0612068
   9.6870241  46.6346359   4.8686733   9.0091467  47.0488358   4.1819730
  10.4828167  46.7464828   4.3640084 -42.8558731  20.0275459 -24.2645969
 -43.3607941  19.4208565 -23.6998196 -43.3376312  19.9816608 -25.1332684
   4.4985671   4.9609094 -26.8763771   3.8417058   5.7361193 -26.8140354
   3.8250370   4.2789292 -27.0707550 -19.9479446  -1.8043334   0.7962961
 -19.7522659  -1.3853104  -0.1032312 -20.5974636  -1.0988193   1.1256818
  29.0093765   5.2454548   7.9948354  29.5750885   5.9963083   8.2945147
  28.5595837   5.0952287   8.8786516   4.8718381 -19.0795498  -8.2692804
   5.0388789 -19.9230309  -8.7257881   4.2284336 -18.6781540  -8.9506035
  -5.5564523   3.3536673  29.4869137  -5.0099545   3.7362027  30.2023048
  -5.5848937   4.2188592  28.9776726   5.1731267  17.7519627   1.3977597
   5.1483259  18.6336861   1.0253855   5.9516802  17.3325787   1.0376976
 -19.3962669   1.9289511  42.3707008 -18.7638626   1.4676608  41.8207054
 -18.9879341   1.7921904  43.2404594  38.1261711  29.5206738  12.1001091
  38.6961021  30.2661705  12.2276030  38.7865181  28.8135586  12.0311098
  28.4108696 -11.8895521 -21.2888298  28.3013401 -11.7505875 -20.3407173
  27.5503941 -12.3715343 -21.4976730  30.6968937   7.1243882  35.1443710
  30.1357651   6.4188576  35.5273399  31.2027645   6.4807696  34.5072975
  -4.5345616  -9.9823370  36.6847115  -4.6436887 -10.4174461  37.5563431
  -3.5366597  -9.8831358  36.6732979  33.9523735   6.6326680 -17.1223984
  34.4150200   6.3571725 -17.9426479  33.5054283   7.4709792 -17.4625568
 -33.3672485 -18.8260536   9.1567059 -33.7680855 -18.4254665   9.8157320
 -33.9443359 -18.9177723   8.3605881 -12.8058395  -6.2901711   6.7740459
 -13.1328621  -7.2033515   6.9385448 -13.6319189  -5.7652183   6.8170505
  19.5560436  19.0407734 -19.6819706  20.0323734  18.7275562 -20.4913139
  18.7197456  18.5270481 -19.7726307  28.9136391 -27.1040306 -20.7865829
  29.4771099 -27.2437687 -21.5289726  28.7149620 -28.0772076 -20.6018181
   3.0228589 -34.3914108   4.9550152   2.9854043 -33.5546646   4.4241652
   3.6618087 -34.0794334   5.6469059  15.2331438  23.3041191 -26.8368092
  15.1753111  22.4314003 -27.3397236  14.6897430  23.0668449 -26.0483093
 -13.4444275  36.5716095 -33.2977982 -14.2173691  37.1313362 -33.0414963
 -12.8247356  37.3512840 -33.5141869   9.7185068  32.5365906  25.5889778
   9.3434525  32.6688881  24.7095776   8.9421453  32.1907578  26.0668526
 -10.7493095   0.3086788 -11.3984947 -10.0905724   1.0203183 -11.6591434
 -10.2415905  -0.0308294 -10.6330099  17.7233353   7.2371254  33.8835564
  17.9121189   7.7172656  33.0809517  17.0795517   7.8996387  34.2769318
   7.9629006  33.6652832  -2.7528329   8.2742310  32.7808037  -2.9650543
   7.6746888  33.6249237  -1.8424466  -4.9739923   0.5744383 -36.3675003
  -5.9388814   0.7347773 -36.4638138  -4.6846843   0.5612381 -37.2729988
  -4.0404863  32.4453964 -27.3032856  -4.2281208  32.5956383 -26.3563728
  -4.7105217  31.7383099 -27.5034618 -15.9310856 -25.1371098  21.4086113
 -16.8335476 -24.9016399  21.7308216 -15.3477688 -25.0580521  22.1352978
  40.6050491 -17.7636108  21.0449009  40.8177032 -17.5534592  20.1529102
  40.8740501 -18.6979656  21.1079693  12.9352570  -3.1533697  33.6186638
  13.8056965  -3.1617856  33.1864815  12.6702499  -2.2251351  33.3729210
 -16.9691124   9.7650108  37.0562859 -16.5990238  10.6863422  36.8176880
 -16.7534542   9.3103561  36.2148018  21.8196735  34.3813057   8.6379337
  22.4479904  34.4501038   9.3948965  22.4176407  34.7616959   7.9382391
 -11.0643797   2.4386358 -32.3986244 -11.1777267   1.5302910 -32.7604942
 -10.1648083   2.4232044 -32.0009041 -22.3251095 -10.6595726  36.1113625
 -22.0480766 -10.4769802  37.0402641 -22.3038578  -9.7637377  35.7484322
  12.0197668  -2.2784774 -43.9177017  11.8068848  -1.5597861 -44.5845184
  12.1197758  -3.0150247 -44.5859070 -40.7705727  19.0939312   2.2620549
 -41.4116516  18.5164528   2.6973548 -39.9203033  18.5754128   2.2097354
  26.7475548 -22.3827667  13.2415667  27.0084877 -23.3222294  13.5363512
  25.8046627 -22.5204697  13.0965786 -32.1992264 -34.3550758  20.5357475
 -31.7084618 -33.6539879  21.0108643 -32.8438797 -34.6105537  21.2281380
  25.8149967  11.8356495 -29.3663921  24.9077492  12.0001240 -29.1813641
  26.2068634  12.5164700 -28.7775898  20.7821770   3.6090009 -24.8601704
  21.0289745   4.6184936 -24.8524170  20.7851448   3.5022717 -25.8349285
  18.8666039 -35.7024574  34.2339439  19.1118431 -36.4434395  33.6124802
  18.2962742 -35.2295761  33.6178284   3.6873727 -29.3419266 -38.9099846
   3.7007840 -28.5186348 -39.4696083   2.7854080 -29.3516846 -38.6051483
  32.8133278  10.0872860  -1.9555688  33.2350769   9.8549566  -2.7750263
  32.2618141  10.8766098  -2.2951138 -23.0343838   6.6374106 -47.1847153
 -23.9583950   6.6150727 -47.5447731 -23.1265602   5.9688458 -46.5002899
  36.6326637  -1.2375221  -4.9072280  37.5550575  -1.2906498  -5.2012153
  36.2352257  -1.3258623  -5.8157792  39.4439316  -5.2499580 -19.2384853
  39.6635361  -5.5148311 -20.1154861  40.3244743  -5.2808151 -18.7960644
  24.7174816  22.5656338 -15.0109558  24.5315609  22.2323017 -15.9520016
  25.4881744  23.0737228 -15.1610088  -0.3190667   9.5019083 -26.2013931
   0.0955712   9.3777933 -27.0780716   0.1777693  10.2870789 -25.8945961
  -4.0093970  41.5784187 -29.7930241  -4.8114324  42.2179146 -29.8438625
  -4.5092077  40.8629837 -29.3276615  -1.0104382 -31.0076809  10.0482855
  -0.2781176 -30.3789139  10.3011322  -1.4478791 -30.5132275   9.3237190
  -9.4891481  39.1945572 -17.0150032 -10.3215647  39.1929016 -16.4805164
  -9.6346970  38.3865585 -17.5086117   7.2935257 -37.2627602  11.0100327
   7.1403027 -38.0774994  11.5451536   7.2321887 -36.6289482  11.7123604
 -18.1913261  14.7713118 -16.3848209 -18.4851589  15.1672993 -17.2099819
 -17.5124569  15.4784651 -16.1276951  11.3719845  46.4876213 -15.7757769
  11.8924809  46.3042946 -14.9649611  10.8186960  47.2013626 -15.4151363
 -37.1873856  18.5344524 -24.7127228 -37.2063751  18.0297508 -25.5429783
 -38.1420860  18.7289600 -24.5914822   0.0116176  31.9669571  -0.0115832
  -0.0472096  32.6510086  -0.7598336   0.9756162  31.9236279  -0.0418281
 -41.0194397   7.3965721  -4.4791369 -41.4038467   8.1032076  -3.9185834
 -41.6127090   7.2730560  -5.2212877  38.6204643  -0.2410877  27.4548645
  38.9228134  -1.1013685  27.8425446  38.5541077   0.2454750  28.3110447
 -16.2522869  12.0230989  19.7236805 -15.3171644  12.3458195  19.8255825
 -16.6319885  12.7597570  19.1878490 -37.5591736   3.3667390  12.5833015
 -37.5353470   3.2248495  13.5779152 -38.2607193   3.9995112  12.5608282
  16.7712383   8.2435484  19.3082867  16.3654804   7.5325112  18.7238750
  17.6058903   8.3917389  18.8699589  23.5537415  -6.1105418  -6.9972725
  23.6522350  -6.7336617  -7.7485404  22.5863495  -6.0865636  -6.9718752
 -10.7510319  10.7635555  46.3515472 -10.7148685   9.9721622  46.9437904
 -11.7798862  10.8845768  46.2883873 -18.8884182 -28.1502037 -17.8480873
 -19.3910446 -28.1008492 -18.6833553 -18.0135918 -27.8643684 -18.0864067
  -3.8597004  37.9608040  -5.1203833  -4.2785854  38.7758446  -5.6180401
  -4.6908689  37.4548912  -4.9664025  31.1979294  18.7989979 -21.2666569
  30.7138653  19.4997635 -21.7495632  31.1008968  18.0597763 -21.9127445
 -29.1105652 -25.1394844  17.9444809 -28.4265823 -24.6067295  17.5846577
 -28.7492390 -25.5796623  18.6857567  42.3772278   8.0031786 -10.1209078
  43.1104126   8.3067122  -9.5071144  42.9229202   8.0481262 -10.9409571
 -17.6498871 -10.2240162  31.8079948 -18.3365536 -10.9335613  31.7299671
 -17.2647781 -10.4690123  32.6553764 -19.9668407 -21.5266914  -4.0202990
 -19.7186642 -20.6566563  -3.7080717 -20.2772598 -21.9956856  -3.2226775
  32.9170723  34.0847130 -13.8721533  33.3086433  33.1913605 -13.7093248
  33.1531372  34.5084724 -13.0000648  17.9143753 -18.4910336  -7.2629113
  18.2730446 -17.9902859  -6.4709926  17.2270412 -17.8798561  -7.4794807
  23.1912098  39.1492729  -5.1369023  23.0934219  38.7238655  -5.9879665
  23.3735657  38.3610153  -4.5704093  -1.7287736  24.3203926 -19.7545033
  -2.0619233  24.6671581 -18.8676224  -1.2985420  25.1296883 -20.0751534
  21.8270607  -7.5193796  -3.2948139  21.7961597  -7.6022191  -2.3258023
  22.2331524  -8.4256411  -3.4858935  -6.3252273 -16.4482365  17.1851082
  -6.6496592 -16.2907734  18.1597290  -7.1937065 -16.5175133  16.7759762
  24.1166534  17.3143711  -3.8550594  24.2195301  18.2187939  -3.4356270
  24.6443768  16.7908058  -3.2422595  24.0251980 -23.0293941  17.6551800
  24.2947330 -22.7933216  18.5282822  23.0477886 -23.0551128  17.7961311
  37.0040131   9.3373489 -29.7739811  37.6262856   8.7567234 -29.3106480
  37.4479866   9.4542665 -30.6286030  -6.9899092  42.5339699  26.7862263
  -6.7485714  41.6033058  26.6378841  -7.7617040  42.5072212  27.3138161
 -26.6673603  28.0554733 -16.1829529 -27.0050278  27.4486275 -15.5524206
 -27.4996567  28.6413383 -16.2008076  37.6614990  21.7079105 -24.5670128
  36.7012215  21.4012451 -24.4900494  37.8509331  21.6902962 -23.6316090
 -25.4791012  21.2698784   2.8786416 -25.4612617  21.7171192   3.7599058
 -24.9802456  21.9129105   2.3253937  -4.4519691  -0.8843830  29.0747280
  -4.7846069  -1.7403629  28.7337227  -3.5225065  -1.0761386  29.3336563
  -0.7244729  14.9338102  39.0747719  -1.2226596  15.2638445  38.3285332
  -0.0244880  15.6238260  39.1308708  11.7169847 -13.9419880  -0.1305670
  11.4569464 -14.5856247   0.5238117  10.8522358 -14.0855455  -0.6983732
  32.0756416 -27.8239174   4.6397505  31.6846371 -28.1944542   3.7897661
  32.8762512 -28.2261581   4.7124982 -30.5536861   5.6872773 -15.0746250
 -30.7767429   5.8825641 -14.1783094 -30.5307751   4.6684637 -15.0122919
  13.8335228  39.2430496 -23.7218590  14.6208429  38.8139000 -23.3776894
  14.0123768  40.1959190 -23.4922791  10.5693092  17.7992840 -11.6506109
  10.0688572  17.7494926 -12.5000992  11.2223196  17.0983753 -11.7817211
   6.5047021  20.2195110   9.0855637   6.6334972  19.3562126   9.3978024
   6.8774648  20.1358490   8.1910429  16.7798367  30.0551624  23.4244080
  16.3046989  30.8566589  23.7776508  16.3972416  29.3492012  24.0169582
  -7.5982518  10.0814657   7.2574401  -7.6844449  10.2068157   6.2971082
  -8.3114157  10.8006058   7.5255957 -21.8682613   2.5226421  39.6512222
 -21.2723770   3.2492373  39.9183540 -22.7549763   2.9481306  39.8926239
  37.9095039 -16.0089741 -27.5144711  38.3817406 -16.3414116 -28.2798519
  37.7876930 -15.0718670 -27.6854210   8.5869436  -1.7680861  14.0135326
   8.1224546  -2.6131501  13.7077770   9.0518131  -2.0605876  14.8520603
 -20.1164417  23.3787441   1.0413830 -20.5523243  24.2416668   1.2097496
 -19.3451939  23.6780529   0.4744147 -28.4432354   5.7065721 -16.6693592
 -28.7559376   5.5331845 -17.5826225 -29.2610683   5.8888373 -16.1546040
   6.7027974   2.5576868  36.2465286   7.4537101   3.2895653  36.2370110
   7.0563836   1.9809846  36.9527512 -27.2303696 -28.4084377  -3.5070744
 -27.4014168 -28.8251629  -2.6337054 -26.6842041 -29.1638298  -3.8628161
  18.0404644 -10.2272701  42.2092476  18.7139206  -9.8298664  42.8430367
  17.5605564 -10.7671394  42.8968697 -38.4333572  16.7617264 -30.1219444
 -38.4929466  16.7167530 -31.0535831 -38.9149628  15.9898968 -29.8573170
 -28.4878731  32.4225388 -12.1948004 -29.2225914  32.1809731 -11.5469618
 -28.3404636  31.5962257 -12.6357403 -23.5669155   7.6630917  -4.4719710
 -24.0669079   6.8224134  -4.3147416 -22.6187668   7.3569245  -4.3617339
 -33.0613632   9.4827709  -7.4350104 -32.2153587   9.7454548  -6.9674377
 -32.9089050   9.6882915  -8.3337402  10.4872246 -41.0451393  -0.5216314
  11.2248936 -41.0118713  -1.1654783   9.7332010 -41.2210197  -1.1319298
  21.3508625 -26.6320820 -38.1730576  21.5382824 -27.5330238 -37.8592262
  21.0411892 -26.7816410 -39.0437012  21.4220467   3.9570355  -0.3482150
  21.9144764   4.7073488  -0.7012717  21.0041046   4.3624954   0.4835538
  13.6968880 -37.2214775  21.6412754  13.5692215 -38.1318703  21.9870529
  13.7064610 -36.7352104  22.4675007  17.7143250  13.2383289   5.8808370
  18.3824921  12.7845144   5.3972564  16.9528065  12.6457644   5.8486590
 -32.2580490 -19.2991638  14.8276615 -32.5160828 -20.0491886  15.4067879
 -32.1061401 -19.7836132  13.9616137  16.9736195 -12.1141024  16.3476925
  16.3207836 -12.7272339  15.9610481  17.4727211 -11.9242411  15.4962511
   3.3488631  25.2665291  13.6506586   3.9416766  25.6379528  14.3559952
   3.1698763  26.0810699  13.1293936 -42.7990494 -10.1472082 -24.8238468
 -43.8146591 -10.1397085 -24.6913338 -42.8319855 -10.0990963 -25.8200703
  11.0864620  38.8247604  -3.0346594  12.0127621  39.1471786  -3.2418447
  11.0373878  39.1272430  -2.1315711  26.7871685 -19.6285553 -33.1043205
  27.2015018 -19.3966866 -32.2298698  26.6126003 -20.6060524 -33.0053940
 -15.8983650 -22.5978146  22.4997673 -16.7303047 -22.6912403  22.9896832
 -16.3028316 -22.0548229  21.7617359  39.0948334 -22.6985970  -3.2497942
  39.5336761 -22.5773811  -2.3941178  39.0908546 -23.6429062  -3.3453801
  33.8074265 -26.3324165 -27.0717030  34.7067947 -26.5939140 -26.6645794
  34.0235138 -26.4678898 -28.0410976  -0.3829257 -16.2077713  40.9259872
  -0.3345759 -16.9078674  40.2362862   0.5396906 -16.1046448  41.1608086
  -8.2198172  40.9022560 -33.6987572  -8.7615852  40.3005524 -33.1897087
  -8.7737617  41.0690231 -34.4932976 -31.1367607 -11.8718319  12.2303133
 -30.7539005 -11.4852695  11.4495659 -30.6708927 -12.7079802  12.3525858
  32.9458504 -27.4507561 -14.6694632  33.2551956 -26.9549885 -13.8877659
  33.6629448 -27.2176533 -15.3147783 -38.1956291 -15.7994385 -16.2315826
 -38.6007385 -16.4146290 -16.8475971 -38.5362625 -14.9601412 -16.6533947
  -5.8895030 -34.5563545 -15.0654898  -5.0031147 -34.3437805 -14.6190681
  -6.4314203 -34.5213509 -14.2372503 -17.6523533  21.8700848  -8.7504692
 -18.3724403  22.1771851  -8.2302742 -16.9856415  21.6439800  -8.1011486
   1.5459813  12.1684294  40.3194618   1.4726487  12.6586266  41.1751823
   2.4657211  11.9026842  40.3553123  -7.6459408 -36.8228951  -3.2865031
  -8.1960115 -35.9960060  -3.0731266  -6.8349566 -36.6073532  -2.8724923
   1.9349415  40.8675461   6.1534433   1.4060169  41.7051620   6.0106778
   2.8075979  41.2179184   6.0137029 -34.8253708  29.5445309  18.7489090
 -35.7052650  29.1853161  18.5180416 -35.0184288  29.9522915  19.6567917
  27.0300961  30.9969311  18.7365761  27.2382965  30.2228222  18.2199974
  26.0635204  30.7550526  18.9258804  31.6484222 -10.1490746   5.0320415
  31.4017391 -10.2933683   5.9820075  32.5291023 -10.5205536   4.9365382
  24.0598373 -16.9443150 -28.6713676  23.1049461 -16.9751987 -28.8578777
  24.3629379 -17.7786694 -29.1115208  20.2708225 -13.1113157  30.1651993
  20.6594257 -12.8253832  29.3284721  20.8135643 -12.6138287  30.7777386
  40.9609146 -18.4137611   7.0536284  41.1429291 -19.3367805   6.7437382
  40.0186157 -18.3784428   6.9532518  -7.1528974 -21.1483822  13.4344263
  -7.0584650 -22.0725918  13.6798964  -6.3582244 -20.7396545  13.8064795
 -38.0562477 -28.0439053 -15.5916557 -37.5091324 -27.8645077 -16.3882008
 -37.3325691 -28.2168388 -14.9112177   0.6989995   0.0671168   7.5750113
   0.3967368   0.0807838   6.6387491   1.5680441  -0.3037016   7.4069929
 -11.9012184  -9.0432911 -34.5087776 -11.9482594  -8.9561882 -33.5293236
 -11.8460093  -8.0325441 -34.7031746  -3.5005453   0.6245279  32.6308060
  -3.1008029   0.2489231  33.4650574  -2.6372719   0.7544076  32.1517220
  13.9158945 -26.2119713   8.3093967  14.5630465 -25.6555805   7.7898660
  13.6259041 -25.5542507   8.9560823  39.3237572 -20.9247017  -9.6132355
  40.0774536 -21.4718933  -9.2908468  39.7380371 -20.1200523  -9.9108772
  30.2507915 -29.7720451  -0.7116101  31.1929836 -29.4225483  -0.6107067
  29.9088135 -28.8783340  -1.0046650   3.9063501   0.7986319 -38.5312004
   3.2278938   0.1291266 -38.4606133   4.7106652   0.3108277 -38.1907806
 -27.2031898   4.8476400 -36.1245689 -27.5356598   5.6802111 -36.4541054
 -26.4786358   4.6028609 -36.6932716   9.3079119  40.8545532  22.0330086
   8.8944130  41.5496330  21.4514732   9.0649910  41.2125473  22.9318523
 -27.8482742  -1.5078194 -41.9598503 -27.4370651  -2.1083832 -41.3056602
 -27.1819553  -1.5778868 -42.7041054 -35.3481750 -16.7160549 -23.7183666
 -34.7176285 -16.7545490 -22.8999348 -35.4395447 -17.7352352 -23.7364140
 -12.9615593  -6.4580164  -3.1246974 -13.8836584  -6.8109522  -3.3360922
 -12.8489056  -6.7128181  -2.1916611  -3.4840965  -7.4670982 -27.2423820
  -4.2596755  -8.0096388 -27.6146507  -3.9146593  -6.6174159 -27.1154957
  -1.6276602  24.1169796   5.4002910  -1.1720773  23.2186432   5.4788275
  -2.2204440  23.9726486   4.6463518  34.9791985 -28.2138023  20.6865616
  34.5902443 -29.0379295  20.9697933  35.9311256 -28.3818226  20.7545147
 -26.6701889 -23.4731140   4.5494037 -26.2922611 -24.2282162   4.1294394
 -26.2383003 -22.7223320   4.0785871   0.3951014  27.3563728   0.7420942
  -0.3564423  27.5889225   1.3762414   0.9552912  26.9089375   1.3618801
  21.7873192  10.4099998  28.1272678  22.5814514  10.1216269  27.6327991
  21.3368740   9.5244694  28.0611629   5.8970270  22.6439495  23.4011326
   5.7265058  21.7572460  23.7775040   6.1204624  23.0785847  24.2735195
  25.5005722  -4.6013489   3.5041609  25.2334595  -4.2117043   4.3296366
  24.8835926  -4.1230206   2.9400387   7.6176844  12.0294123  27.2670269
   6.7900295  12.4881964  27.0159950   8.2402582  12.7217112  26.9959373
  43.5193214  -6.9838576   8.0130291  44.4098244  -7.4001980   8.0856094
  42.9215469  -7.7355576   8.0670900  16.0297432  23.4710674   1.0968353
  16.2620125  23.2720528   0.1701716  16.5221767  24.3118172   1.2221903
 -27.1607475   7.0677614  14.3769455 -27.4482727   8.0196018  14.4131947
 -27.5481281   6.7196250  15.2450705 -13.2951069  23.8926182  -5.6076035
 -13.7381592  23.0059128  -5.7752261 -13.0654335  24.2109146  -6.4610577
   2.7456121  38.8707466  13.1928673   2.7944889  38.9785461  14.1216459
   1.9002663  39.2551079  12.9510727  -9.0381994 -14.9875355 -25.9275112
  -9.1127138 -14.3010616 -25.1858139  -9.9393616 -15.3088417 -25.9376583
 -18.5274162 -42.8356743  -4.1304078 -19.3933563 -42.6018791  -4.5501194
 -18.1656609 -43.3955193  -4.9022107  17.6261444  33.9544258 -19.6509914
  17.0437126  33.2550621 -20.0088997  17.0302773  34.7833710 -19.8279419
  20.5344734 -20.1673927  -1.7271179  20.0202656 -19.9524555  -2.5346253
  19.8288326 -20.2722607  -1.0659674  29.0593433 -33.2693291  10.9657907
  28.5836563 -34.0585136  11.2676220  29.7725201 -33.1389656  11.6095114
 -21.9039192  -7.3590360 -22.6170788 -21.7512093  -6.3730750 -22.4225636
 -21.4410381  -7.4512501 -23.4216862  12.4064198  -4.3266692 -45.7304039
  13.0621319  -4.9412084 -45.4660225  12.9552498  -3.5827775 -46.1633987
 -42.8479004   2.0906746 -29.0689068 -42.3511620   2.5350053 -29.7585812
 -43.0368614   1.2154942 -29.5272427  -4.2223554  44.7124939   5.6844449
  -4.7304525  45.5405731   5.5321746  -4.9323149  44.1282005   6.0737944
 -14.6036549  30.6103535 -40.3920670 -15.5946922  30.4133987 -40.3134270
 -14.6116590  31.5345726 -40.5812035  25.7815838  15.7518377 -11.1135101
  24.8703136  15.8144932 -10.6938725  25.9782925  14.8005896 -10.9508791
  40.5262642   0.9243257  35.7481384  40.8202629   1.4733940  36.4918861
  39.7768440   1.4117029  35.3669586 -12.5029449  -3.2959645  21.0353889
 -11.5255060  -3.3673081  20.8775787 -12.5972738  -3.8941209  21.8082943
  29.8479366 -13.0252390   8.9396515  29.7752590 -13.7400818   8.3187628
  30.2733631 -13.4208307   9.6898327   1.4261303  16.4250145  11.2029409
   1.0568658  15.7479181  10.6740074   1.3933247  16.0713825  12.1109228
 -29.9786854  27.9720840 -23.7836189 -30.2205334  27.7558270 -22.8587379
 -29.0931702  28.3317432 -23.6266994  19.6360760 -23.3714256 -36.3755188
  19.3040829 -24.2527885 -36.1273994  18.7240105 -22.9083614 -36.3682785
  -1.0479352 -21.8217716   7.4802432  -0.6091314 -21.3138676   6.7564983
  -0.2484191 -21.9046249   8.1239796 -15.6673431  12.1894054  36.0646477
 -15.8380175  12.2976236  35.0737991 -16.4382133  12.7065058  36.3358879
  38.3695107  21.9202919  25.0190525  37.3874969  22.0081196  24.8508282
  38.3065872  20.9553986  25.3920269  28.0373669 -31.2929935  -6.5500860
  29.0176067 -31.1320705  -6.4628148  27.8210659 -30.6626530  -7.2421446
 -17.0257301   0.6077439  16.0303936 -17.1130772   1.3794678  15.3467789
 -16.3976402   1.0453113  16.6815872  -5.6078901  -0.2097210   4.8925843
  -5.9045753   0.4416109   5.6241426  -4.7544050  -0.4473350   5.1245780
  -8.5896721 -22.3331375  20.1759758  -8.8710299 -22.2780399  21.0964355
  -8.3264933 -21.3438263  20.0568485  34.0561447   4.5311017  -2.0933950
  34.3118324   3.8198099  -2.7860007  33.3850555   3.9361477  -1.6634252
  16.8618088 -26.0259266  34.4910202  16.4055481 -26.5040646  35.1792641
  16.3426704 -26.3323746  33.6991615  38.5228653 -23.1727428 -16.0973701
  39.2043457 -23.8567638 -16.0496693  37.8973045 -23.4877853 -15.3813505
 -11.7166786  -6.2430530 -11.6264048 -12.0426702  -5.3410478 -11.7733994
 -12.3108053  -6.5223556 -10.8756037 -28.4970455  10.2062540  -3.7617071
 -28.3423996  10.1838121  -2.7510266 -27.6232185  10.5627775  -4.0203338
 -13.6817102  14.8466940  43.0541229 -13.3948469  15.1071758  43.9810829
 -12.9109850  15.1367340  42.5515442  -4.8292699  41.3062515 -12.2228565
  -4.2855377  42.0921898 -12.3440189  -5.3657560  41.3194771 -13.0318937
  33.1081734 -20.3794785  24.4589863  32.2530556 -19.9432831  24.1500111
  33.0882683 -21.2053814  23.8735924 -31.7298832   7.7870512 -30.0014439
 -31.9001217   7.5840406 -31.0001621 -32.4594116   8.3928995 -29.7766514
  36.3380928 -10.4006901  -9.4952860  36.8347588  -9.5511904  -9.4556303
  35.6080437 -10.2684460  -8.9229555  31.5372963 -14.4652061  10.6181879
  32.3613853 -14.2338409  11.1294022  31.6685410 -15.4423151  10.5675440
   2.5538836   2.8561397 -25.4145355   2.4619486   3.7113585 -24.9646454
   1.9502274   2.9535844 -26.1987190  36.9911461  -2.0237534   7.1081333
  37.4341316  -2.4658372   6.2799449  37.5325775  -2.6119585   7.7862878
  -6.6506014  17.8328972  14.3437252  -5.9113693  18.1502361  13.7499304
  -6.1165781  17.6054382  15.1314850 -12.7446613   5.3608913  39.7222595
 -12.1469784   5.5294127  40.4552116 -12.1688156   5.0944262  38.9855957
 -37.0023575  13.3052807 -33.5061073 -37.5495682  13.2720680 -32.7319260
 -36.2912712  12.7117424 -33.3187599  -4.8738675  27.2607498   5.7512069
  -5.8118243  27.6027718   5.8725648  -4.4765687  27.9193916   6.4331923
 -26.9231281   3.3509150 -16.2415581 -26.0868111   3.5636306 -16.6604748
 -27.2566757   4.2912226 -16.2021809  12.3384809 -32.9144249  17.1115913
  12.8191319 -32.0892868  16.7840919  11.9605484 -32.5483131  17.9774628
  -9.0655966  17.1485920  37.1650162  -8.8895149  18.0310345  36.7654533
  -9.6434097  16.7393055  36.5001717  26.6873589  19.3636684 -15.4496460
  27.5276031  18.8832703 -15.2723541  26.9050694  20.3073082 -15.1400032
 -12.9586515  -1.7416424  39.0624237 -12.7621059  -2.3487689  39.8995705
 -11.9542904  -1.6284992  38.8425903  30.3873005  28.4499378 -21.6175137
  31.2212086  28.7573414 -22.0382442  29.8091927  29.2341824 -21.9458485
 -22.2337685  14.4863720  42.0690651 -21.6612873  14.6099892  41.2743492
 -22.2544842  15.3697720  42.4208946  22.2025051  10.0310431  35.2719116
  21.9867840   9.2050514  35.8003540  21.2567406  10.2833843  35.0529556
  30.2548389  31.1264133 -19.3399010  29.3422070  31.3756332 -19.1602898
  30.4677868  31.7565918 -20.0610161  32.7372284  -0.6432684 -21.4756069
  33.5754318  -0.5830953 -20.9550190  32.2726898   0.1489057 -21.1647606
 -19.6506901  -9.8961811  24.6094017 -19.3111076  -9.1836405  25.2203026
 -19.6335068 -10.6212807  25.2360172  12.9403124  13.3370447   7.3178029
  13.2975435  12.7701025   6.6361370  12.8407469  12.6995335   8.0406933
  -7.0063844 -33.1525612 -24.8535538  -7.8008337 -32.7304382 -25.2633514
  -7.1838336 -34.1067314 -25.0253620  21.7381649  21.9394836 -25.7819347
  22.6459541  21.8032036 -26.0167694  21.7061138  22.9292736 -25.5779877
  34.1918564 -16.1875267 -24.1196270  34.3628883 -16.4589748 -25.0453739
  34.5921516 -16.9664707 -23.6958046  -0.8325493  45.2033348 -10.3739862
  -0.8199522  44.2165680 -10.3778038  -1.0141639  45.3452988  -9.4104929
 -10.9821873  -9.6192026 -21.3835106 -11.5445404  -9.2414894 -22.0902767
 -10.1876497  -9.8861217 -21.8588829   6.6973300  17.5131989  -9.6259537
   6.7308950  18.2329178 -10.2827635   6.2026772  17.9803448  -8.9270172
  -9.6777239  -9.3268938 -31.7259827 -10.2146997  -8.6067419 -32.0288696
 -10.1721220  -9.5548935 -30.8706379   1.8468585  -0.0934467 -46.1994095
   1.5193763   0.6968365 -45.7143250   1.0778574  -0.2983900 -46.7737846
 -25.8371181  -3.5231218  35.5804100 -26.7855873  -3.9050903  35.8219299
 -25.8738937  -2.7171893  36.1395226  -1.4172029  39.1466980 -31.0825882
  -0.5058854  39.2180290 -30.7570114  -1.8867455  39.0054779 -30.2730770
  20.1254444   6.2860274   5.7406688  20.3947487   6.3877873   4.8369231
  20.8976822   5.8160195   6.0989451  27.1341610 -29.6378670 -32.1751518
  27.2970142 -28.6744576 -32.2491379  27.3367748 -29.9973927 -33.0332603
  20.7632694 -24.3300190   0.3206231  20.0671043 -24.0808430   0.9144723
  20.4996738 -25.2457981   0.0219169   5.6480584 -12.6896715  -7.2265396
   5.2074752 -12.5306664  -8.0417032   6.3658810 -13.3334656  -7.4225602
 -28.8457527 -18.9546413  13.5198469 -29.1935196 -18.0319347  13.2689295
 -29.1645050 -18.9983234  14.4109259 -32.0247803  33.3920326  -0.2149728
 -32.9352188  33.5966682  -0.6617124 -32.2741623  32.6727257   0.3291506
 -27.5562077 -34.3416214  10.0248871 -27.3586597 -34.8679924  10.8715973
 -26.6170292 -34.1689835   9.7022152 -41.1794167  24.5233898  -2.0702982
 -40.2720604  24.2240257  -2.0325117 -41.0934982  25.4682789  -2.4345219
   5.1390700  26.8133583  15.3178902   4.8120255  27.6603432  15.6634979
   5.4279957  26.4034481  16.1492386  31.6312294  -4.6288171  28.9889469
  32.2458267  -5.3034539  28.8529682  31.3406067  -4.7256823  29.8741322
 -16.0718536  37.0631752  -9.1754417 -16.4829521  36.8291206  -8.3304663
 -15.1556883  37.0086555  -8.8645296  32.6599617 -27.8645535 -19.0008717
  31.9378166 -28.3571892 -18.5758877  32.8010788 -28.3918839 -19.7588634
 -20.5379429  23.8953514 -25.2391510 -21.2893314  24.5370808 -25.0835514
 -19.7671146  24.4725285 -25.1704884  17.9980831 -24.5160313 -32.7929153
  17.7454624 -23.5987663 -32.5073624  17.5159702 -24.5451641 -33.6734161
  28.5268307  -7.5462151  40.5763779  28.7523441  -7.6043916  39.6479836
  28.4268112  -8.5182161  40.7984924  30.1701851  18.2536240   2.6931338
  30.4077110  19.0859985   2.2159233  29.5434418  17.8711224   2.0028331
 -10.5478745   6.0653973 -33.1028404  -9.7477388   5.5213823 -32.8169327
 -10.9907427   6.1962438 -32.2603188 -28.4004650  19.7749805 -27.1601028
 -28.7801971  18.9987373 -26.6259327 -27.5577450  19.7848835 -26.7118149
  19.5554161 -23.0136299  14.3137398  18.6077671 -23.1054077  14.4891462
  19.8999710 -23.8667221  14.6962986 -11.4326782 -22.5996780  29.2305336
 -11.1462393 -22.0689411  29.9989662 -12.2513456 -22.0550652  28.9557858
  -7.6399999 -36.2063942 -16.0217476  -7.8463678 -36.5919724 -15.1571836
  -6.9233990 -35.6064491 -15.7786980  -5.0313530 -20.2928104  18.5917721
  -4.7891350 -20.8264904  19.3483200  -5.6760936 -20.8436108  18.1409836
  -0.3787047 -46.1294327  -6.3305006  -0.1472943 -46.5150108  -5.4251466
  -0.5163997 -47.0035477  -6.8523979 -20.0351009  -1.9478134 -17.7303009
 -19.3692112  -1.9240221 -17.0129929 -20.8248272  -1.7561748 -17.1770020
   6.6418767  28.3288155 -33.7043991   7.1336989  27.6323090 -34.0356140
   7.2646656  28.8312531 -33.1547089   9.9165773  11.9395742  -6.8023219
   9.8759031  12.6028891  -6.0923581   9.0724983  11.5924225  -6.8952599
 -26.0022144  27.0368633  -2.7943208 -26.1271324  26.3709164  -3.5282168
 -26.3596535  26.5461121  -2.0023599 -11.7203264  -6.7635813  40.1829834
 -11.8891029  -6.4005404  41.0755806 -12.6423597  -6.9089508  39.8643913
 -27.6507740  30.2572060  -8.8675127 -26.7392883  30.3780689  -9.3093204
 -27.3019829  30.5974083  -7.9959278   6.2937126  45.1728973  -5.5126090
   6.8110385  45.3805046  -4.7291889   5.3664389  45.3719482  -5.3210559
  16.5705338  17.5334129  35.2251320  16.1902447  18.3485012  35.5517998
  16.8986149  17.8228130  34.3600349  30.7266788  41.0379906 -13.5139322
  30.9704666  41.0047798 -12.5243864  30.1458225  40.2303123 -13.5739307
 -17.4465351 -33.5450401 -20.9824104 -18.0512371 -33.7633286 -21.6712723
 -16.7053185 -34.1123962 -21.2685032   7.4597068  -5.5879807  37.1892967
   7.8066840  -4.8297553  37.6011848   8.0567675  -5.7481146  36.4826012
  -2.0767918  27.5299854  -4.1685090  -1.3510305  27.3751373  -3.5148449
  -2.8544190  27.3971462  -3.5340726 -14.2515059 -15.9401007 -17.2556267
 -13.6136112 -16.1572742 -17.9401054 -14.7553186 -15.2238541 -17.6713524
  33.2338829   7.1007738 -33.4415131  33.9870987   7.0826526 -32.8716164
  32.6700935   6.4354467 -32.9644432   7.2646413 -24.8358955  19.9020081
   6.6631474 -24.3354073  19.3187885   6.8513017 -24.4908390  20.7879086
 -25.7989807   4.4976745  18.4305973 -26.2427197   3.7547491  18.7885323
 -26.1882782   5.3250332  18.6850243 -27.3012772  29.3179741  20.1588364
 -26.6923199  29.6418953  19.4790726 -26.7967243  28.5218315  20.4681740
  14.4353476 -13.8900661 -18.2372112  13.6258888 -14.3971052 -18.3913307
  15.0953789 -14.5942059 -18.0807877  -4.7015085 -28.1426907  -1.9360012
  -5.1335149 -28.7287083  -2.5279806  -5.3537908 -27.8293362  -1.3046086
 -33.4139023 -16.6355534  22.7788067 -32.4430542 -16.8521347  23.0284824
 -33.4129410 -15.6832800  22.8509026   5.2646770 -44.7011375  20.8678036
   5.2289615 -44.2155075  21.7233562   4.9016838 -45.5774612  21.1543274
 -37.2388344  -3.3784175  -5.4412875 -36.8074150  -4.2254233  -5.1278515
 -38.1453972  -3.5397751  -5.0068240  38.2784500 -24.5113144  -0.1027319
  38.5644531 -24.4304276   0.8570704  39.1205711 -24.4807587  -0.5590689
  39.5612869  34.3771935  16.0042477  40.2307243  34.5060463  15.3245163
  38.7535057  34.6302567  15.5713787  43.8500862 -15.8865213  11.0486174
  43.0319099 -16.1666508  11.4343796  43.9042816 -16.3219662  10.1359768
  32.0929184  13.4162912  -5.3836384  31.1595535  13.3864145  -5.0997543
  32.4274483  13.8448277  -4.5471702 -26.9442329  21.0130577  -0.3057634
 -27.7052765  20.6894169  -0.7290474 -27.1753845  21.2301750   0.6410460
   4.2169809 -24.4225140   0.5242111   4.3405023 -24.8743420   1.4176065
   4.1166220 -25.1958199  -0.0046947 -30.8123417  25.1170216 -29.6344147
 -29.8716564  25.2479095 -29.7665215 -30.8705349  24.1457539 -29.4017372
  14.9342260 -36.5277252   3.0260165  14.7541885 -36.8339043   2.1264913
  14.3385162 -37.1157761   3.5591652  30.4691391  35.6750755  17.8417721
  29.6105175  35.2715416  18.1392498  30.9049892  35.6533661  18.7153568
  42.4574356 -21.7374153  -9.9409752  43.4549980 -21.6075439  -9.9026527
  42.4557648 -21.6910496 -10.9670124  27.2419586  14.6427612  -4.8854351
  26.5974522  14.0141020  -4.5192351  26.5811424  15.2403927  -5.3543630
 -18.9521503   2.9145732 -21.8327389 -18.3984203   2.1664848 -22.0113964
 -18.6576920   3.1550121 -20.9230766  36.2266159  21.3488102  19.0252647
  36.8576851  21.1701374  18.3148594  36.7147560  21.0719719  19.8207645
  28.2531853   4.4020138  -5.4574533  28.8205814   3.6039147  -5.4936929
  27.4955654   4.0137138  -5.0274167   1.8412279  40.8851318   8.9330626
   2.2049255  40.8314056   7.9962449   0.9982245  41.3311005   8.7614746
 -17.0840893  37.3624039  -1.4361681 -16.8164711  36.7144203  -0.7076048
 -17.2036991  36.6131744  -2.1464124  17.6963673  19.2681751 -23.7253094
  18.4453812  19.8695049 -23.6378059  18.0488396  18.6252632 -24.3593826
   7.0789022   7.2715054  34.5037537   7.7778049   7.0802460  35.1275520
   6.3012800   7.0314131  35.1426277   9.2760286  15.8775501  -0.8600253
   8.2851181  15.9108324  -0.8521195   9.3718939  14.9899693  -0.4181668
  16.4500465  -4.0417376 -27.8913288  16.3171577  -3.2480414 -28.4785614
  17.1199455  -4.5243278 -28.3844204 -11.9552488   4.3820233  43.8827019
 -12.8127079   4.1901832  43.5999718 -11.6143141   3.5488982  44.2116776
   1.2801123  14.4936438  17.6986618   1.2007734  15.3128614  18.1987495
   0.3544990  14.3279486  17.3882523  36.3578835  22.8894615  -5.3911877
  36.1100845  22.4319935  -6.1920805  35.4895020  23.0912113  -4.9810123
  -3.5564783  18.4876690 -32.6336517  -3.6456602  17.7170525 -33.1992035
  -4.1078444  19.1523380 -33.0889969 -43.7582893 -17.7003536  -5.7560172
 -44.2923164 -17.8762894  -6.5992818 -42.9990807 -17.2270889  -6.1721163
 -14.6049833 -16.0683041 -36.6585045 -14.5105095 -15.5420332 -37.5168076
 -13.8628225 -15.6951780 -36.1581154  -1.0185996   8.3228426  33.1229172
  -0.6680407   9.0666714  33.6697464  -0.2939459   8.3493443  32.4184303
  38.7242088   2.5702093   0.8125883  39.5198402   2.3973358   1.4557583
  38.2826462   1.7334816   0.8995919 -23.8720589  18.3268299  24.0581417
 -22.9369335  18.2417202  24.3333454 -23.8707447  17.7291451  23.2795105
   4.3145118  35.2367058 -29.9134026   3.9439588  35.6682434 -29.1430759
   3.8116896  34.3684273 -29.8516636 -36.1109695 -16.6452446   4.9299135
 -35.1565132 -16.4439354   5.1767287 -36.0142021 -17.5838337   4.7655611
  -3.5492098 -47.5898857 -23.1782131  -2.6650469 -47.3934059 -22.7685566
  -4.0221629 -46.7997627 -22.8576012  19.9094372 -15.1436615   1.2357770
  20.8134727 -15.4234858   1.0211661  19.4660950 -15.4445019   0.3604820
 -14.1678619  -0.9954185 -26.1062336 -14.8572283  -0.3514682 -26.2728691
 -14.4373360  -1.7871065 -26.5622425  -4.0430408  18.2902145  -0.4324182
  -3.2684019  18.8771706  -0.7330647  -4.5647554  18.9788723  -0.0435659
  27.6035290  11.8188667  25.0836487  28.0023518  12.5447092  24.6407318
  27.4940071  11.2085514  24.3004627 -37.9677048 -31.4201374  15.5709944
 -37.3656158 -30.6080246  15.5433588 -38.8257713 -30.9488678  15.4420624
 -26.2944984  -6.3029795  16.0509224 -25.4104004  -5.9715977  15.7200584
 -26.7851696  -5.4063554  15.9125805   9.6623220  14.2955256 -12.3622618
   9.6902618  13.8836794 -13.2210207   9.4449816  15.2104874 -12.5266638
  -0.7452162  44.4205399  14.1186924  -0.1776290  43.7641945  14.5530453
  -0.9014707  45.0263977  14.8944874  28.7118015   2.9206457 -36.5837822
  28.5019455   3.7729681 -37.0282249  28.2135448   3.0321684 -35.7625275
 -43.2244720  -3.9841821  17.6314449 -42.9630432  -4.8222160  17.1880226
 -44.1472702  -4.2428412  17.9296646 -24.2299290 -29.0445881 -22.2455502
 -23.6772919 -28.6054840 -22.9516716 -24.9647579 -28.4983807 -22.1340008
 -25.6445446  -5.7452106 -35.4581833 -25.1696873  -6.5401182 -35.2769356
 -25.9364090  -5.3617988 -34.6267929  -1.2581960 -21.1238861  40.3398895
  -1.8665175 -21.0647202  41.0966530  -1.9329889 -21.1075706  39.6077271
 -43.7334976  -5.3961005  -1.3112570 -42.9138451  -5.8026266  -1.5591484
 -43.4486618  -4.8175888  -0.6064190  -1.3048710  14.4404440  22.0683002
  -1.6624215  15.0865545  22.7089367  -1.6723412  14.7658844  21.2384491
  17.5805969 -19.8397369 -28.4846497  17.9710331 -19.3180542 -29.2264328
  17.0397625 -19.2083054 -27.9998665  -6.7693663  22.8591080  41.5125160
  -7.2482548  23.7628784  41.4528656  -6.7242837  22.6856117  40.5240517
  38.5967865  -2.9888220 -13.9509716  39.1178398  -2.3504291 -13.3820124
  39.2671967  -3.7593629 -14.0053787   7.1408033  24.8026791 -25.0568047
   8.0056696  24.5918941 -24.6702728   7.0579267  23.9231682 -25.5890770
  10.4947720  13.6920490  16.0924950  10.1427059  13.6678972  15.2485266
  10.3743486  12.7906313  16.4090805  21.2980824 -18.5572739 -31.5347595
  21.2680016 -19.3219337 -32.1337433  20.3136635 -18.5469761 -31.3140736
  -2.7293661 -33.4151573  15.7363167  -3.4420598 -33.4778633  16.3574715
  -2.7596409 -32.4529266  15.4606981 -25.5113010   1.9699723  37.2737503
 -25.2273731   1.6170999  38.1130981 -26.4864120   2.0548487  37.4050255
 -38.1780014   5.8726082   8.1814709 -37.3173943   5.9200993   8.6136751
 -38.6768379   6.5736504   8.6651964 -42.7840195  -0.8854221 -12.6809530
 -42.4963341  -1.7690526 -12.8837204 -42.8293114  -0.4920079 -13.5800419
  23.0769444  32.9697800  19.7135601  23.3450451  33.0403671  20.6871929
  22.6592960  33.8712158  19.6325302  36.1274300  -9.0393333 -28.3729305
  36.9501228  -8.9933348 -28.9044704  36.2638435  -9.5725622 -27.6229324
  -2.1992614  27.5929947 -13.9063416  -2.9217489  26.9633770 -14.1824598
  -2.4171536  27.7175159 -12.9809427 -39.4538727  11.6997309  -6.5534682
 -39.8753166  11.3132191  -5.7870536 -40.0238953  11.4250746  -7.3020191
 -38.3860359 -19.9021301  23.5828857 -38.2282333 -20.8909988  23.6658001
 -39.2904701 -19.8977642  23.8866348 -38.3245468 -21.7007656  10.7764883
 -37.5898705 -21.0543194  10.6874504 -39.0036774 -21.1446266  11.1404009
   0.4091461  44.3546028  17.5524940   1.2593933  43.8827133  17.7936192
  -0.0507607  44.2032661  18.4258213 -38.1166229  14.6136951  -4.0951285
 -38.6914444  15.1223364  -3.4499269 -37.5560112  15.3291636  -4.4175801
 -26.7716599  -4.7242751  -6.9866643 -27.6918125  -5.0711279  -7.3102870
 -26.7911205  -3.8586409  -7.5249271 -23.3711605  14.5419044  -1.8556163
 -23.9377518  13.7921820  -2.1990683 -23.4839745  15.0740948  -2.6986570
 -23.2165070  33.4216957 -15.0869751 -23.0894623  32.7383461 -15.7643480
 -22.3348179  33.8359146 -15.0836105 -28.1863956  18.9183502  25.6478443
 -27.4760113  18.3366718  26.0409927 -28.1278133  19.6010876  26.3400555
  31.8985882  37.4288750  19.5776482  32.0249290  37.5873795  18.5856209
  32.8910904  37.5323563  19.8087978  29.2271805 -18.1958275 -14.7773304
  28.8505516 -19.0122337 -14.4050922  28.6869373 -18.0443954 -15.5344362
 -23.5635834 -35.7586632  -2.2727671 -22.6402740 -36.2262688  -2.4385192
 -23.2262859 -35.0765762  -1.6016569  -3.4845884 -29.3838272  -7.5990772
  -2.7901070 -28.8082638  -7.9976902  -3.6763928 -29.9715023  -8.3295803
  -3.3297431  -9.5808153 -43.9757423  -2.5814047  -9.0339279 -43.6878624
  -2.8794599 -10.3169374 -44.4057961  -9.3452721   7.4003615  12.2130976
  -9.2124176   8.3627977  11.9855385  -8.7849655   7.2984071  12.9525023
  28.4912453  36.1990852 -11.2204657  27.5773926  36.3431892 -11.0062017
  28.4793968  35.2421417 -11.5092030 -37.8759346  14.6443977  28.3550549
 -37.4678802  15.1723299  27.6518879 -38.1531715  15.4362316  28.9492073
 -42.0149231  -8.8645964  13.5771999 -42.6082916  -9.5253572  13.0661201
 -42.5147438  -8.8524799  14.4129210  -8.2356386  -1.9948379  -0.3914217
  -7.6435513  -2.7357099   0.0367729  -7.4816260  -1.6276952  -0.9626764
 -12.5489721  -3.4184229 -11.9227982 -12.3214025  -3.1220109 -10.9968767
 -12.1530857  -2.6355457 -12.4232979  42.6765518 -32.0530205   7.8113742
  43.5351295 -31.7582321   7.3781838  42.1518745 -31.2657509   7.5478964
  -3.0312791  26.1636028 -28.1453323  -3.1572804  26.8258076 -27.4384594
  -3.6284781  26.4433975 -28.8413696  -3.3826401  14.0899849 -31.8659344
  -2.7591515  14.7193365 -31.4025707  -2.7229402  13.3189306 -31.9041061
 -19.0823441  27.4083958 -28.6127815 -18.9803925  28.3884830 -28.4112320
 -18.9159927  27.5218391 -29.6015148  37.8109283 -20.9277802 -17.7006912
  37.8459206 -21.5820694 -17.0108833  37.8444557 -20.1173420 -17.1853790
  27.9568176   7.9047694 -11.8078308  27.0338821   7.7809138 -11.5406876
  28.3862038   7.4952497 -11.0298252 -18.7523670 -23.3605328 -16.7839279
 -19.3184299 -24.0825844 -16.3597794 -18.1589470 -23.2347031 -16.0105877
 -36.4266281   6.6491456   4.2538567 -37.2009926   6.9749732   4.7784472
 -36.0180588   7.6011138   4.1192360 -42.6907005   9.6478758 -20.2458096
 -42.3328133   8.8030272 -19.8999119 -42.9835930   9.3942251 -21.1192646
  20.7007580  31.9873562  12.0011415  20.1957130  32.8147011  12.1613321
  19.8914852  31.3600349  12.0023317  27.7261467 -26.5918198  18.7608395
  27.0047894 -26.1018200  19.2614098  27.5866585 -27.4727364  19.1521206
 -16.3152752 -37.5062332 -16.2649899 -15.8158092 -38.3256912 -16.0933952
 -16.0431347 -37.3186913 -17.1870956  -9.6581373  36.8884163 -24.6938114
  -9.8968706  36.9467392 -23.7070427  -8.6995564  36.6252861 -24.6594677
  -5.3789835  31.3074207  35.5943146  -5.8757105  31.5966434  36.3469963
  -5.0887394  32.1039696  35.1834488  22.8576584 -16.3439655 -12.2705965
  22.0084915 -16.0677299 -11.9764557  22.6974583 -16.5978775 -13.2007818
  -0.5347797  -0.3413662  52.4168968   0.1026694  -0.8533936  52.9713211
  -0.7051394   0.4149721  53.0344467 -36.1545982 -10.5133028 -21.3577423
 -35.6822243 -10.6704779 -22.1602077 -36.9233246  -9.9739122 -21.6651592
  34.8058586  13.5215321  17.7269802  34.4409218  14.3458300  18.0632114
  33.9791069  12.9909563  17.5995026  -1.2374847 -17.4816875 -41.5994034
  -1.5391043 -16.5872135 -41.8743248  -0.6339638 -17.2722301 -40.8719597
  -2.0424778  -4.1507945 -24.0969028  -2.3449221  -5.0959420 -24.1585732
  -1.0913368  -4.2792764 -24.1152401  42.1499634   9.7218142   7.8955564
  41.8185921   8.7781382   7.7220178  42.5038109   9.9353809   7.0097151
  -9.3506413 -12.5591831  24.2269135  -9.6402903 -13.3066893  24.7880383
 -10.1438875 -12.2961636  23.7657700  21.5029125 -33.5830956  18.2872143
  20.8317604 -33.3677254  18.9798908  21.3550034 -34.5663033  18.2592449
   8.9217539 -13.3818178  30.4563522   8.0297260 -13.6169786  30.7298317
   8.7430391 -12.4691219  30.1041527   1.5344478   1.7269607 -43.7736511
   2.3392162   1.6124226 -43.1893463   1.9295497   2.4661584 -44.3521843
  24.8945999  10.2846212   5.2856364  25.6062565  10.2909374   4.6647582
  24.4670506  11.1194878   5.1544271  14.8902445  49.4067497   8.4158039
  14.1272888  48.7450066   8.6554489  14.3547525  49.9813957   7.8273292
   9.3956203 -13.7972240  21.5440922   8.8681202 -13.7396650  22.3819218
   9.5936518 -14.7318020  21.5426941 -21.1569004   8.0516090  -3.0721819
 -21.4080353   8.9156799  -3.3679750 -20.9330006   8.2612143  -2.0690525
  -0.3548423  24.9236698   9.9023504   0.5301214  24.6282692  10.2620792
  -0.9692454  24.8092384  10.6063671 -35.8944626  -0.3749719   3.7434535
 -36.2728348  -1.0748297   4.3495774 -36.2700272   0.4352556   4.1466231
   4.9570909 -12.9890060   0.9349453   5.3617468 -12.5483322   0.1912974
   5.8046794 -13.2209158   1.4742299  42.5989799  15.1377535  11.6033773
  42.5568657  16.0142059  11.2109852  41.6363373  14.9754429  11.7406025
 -11.5631361 -16.4297695 -32.9025307 -12.0571117 -16.2154694 -32.0403175
 -11.9126081 -17.3722572 -33.0273170 -34.3951035 -18.6890926  28.5853863
 -35.1842117 -19.0161209  28.1087303 -33.6794510 -19.1566620  28.0319767
 -34.0712013  -2.1045175   6.2047524 -33.7107201  -3.0378828   5.8923368
 -34.9138031  -2.1905506   5.7103877   1.8933442  -3.1082764  -5.9867682
   2.4607105  -3.0263827  -5.1482735   2.0863292  -2.2371840  -6.3919477
  25.9384575  -5.7716022  46.4764824  25.7258244  -5.0165663  47.0042686
  25.5354462  -6.4866228  46.8516617  -9.7431068  -4.7641072  34.8540993
  -9.4264383  -4.0985408  34.2063942 -10.2660017  -4.1660666  35.4665680
  15.6325369  -5.8837414   1.3993450  15.3568411  -5.9106812   0.4143659
  16.0417004  -6.7510409   1.4724798 -25.2760239   0.7205311 -39.4051628
 -24.3232155   0.8966347 -39.5177727 -25.2665520   0.5231242 -38.4115028
  10.6806221 -19.3572540 -22.8538284  11.0004902 -20.2420063 -23.1947556
  11.4298811 -19.2031803 -22.1924763   4.1335039  10.8831768  40.7839508
   4.4370031  11.7288113  40.3975983   3.7700229  10.4656143  39.9776726
  35.3192329  17.6903572  19.5414715  35.1135292  17.7870388  20.5153790
  34.5519981  17.1581898  19.2192249  34.3392258  17.8305283  12.9151297
  34.3255615  17.4515934  12.0023565  33.3402977  17.9248199  13.0843191
   8.7300367 -12.4953814  24.0575733   7.8484764 -12.6462831  24.4225712
   8.5675888 -11.9111013  23.3041534 -15.9024839 -30.6883545  13.2081509
 -15.8859053 -31.4648952  12.5262909 -15.8469296 -31.1851444  14.0076828
  18.4575901 -39.2553024   9.1777973  17.7839165 -39.6038170   9.8251190
  18.1743412 -38.3532410   9.1278696  -3.7211971 -24.9941444 -19.4578991
  -4.4128079 -25.6654606 -19.1644554  -4.1417871 -24.6607609 -20.2295723
  12.1428099  31.6451225   9.5610352  12.0444460  31.7474613   8.5737867
  11.8226585  32.5372581   9.7651110 -29.4969349  25.7165546  13.5584784
 -29.0327702  25.0478477  14.1348181 -28.9353542  26.4807472  13.7126932
  15.1912069  -7.1610045 -12.8125992  14.5119400  -7.1752210 -13.5276537
  15.2242031  -8.0784178 -12.5367031  12.1337910  35.2064247 -12.4678421
  12.0722599  36.2034264 -12.6839466  12.9931936  35.2285500 -12.0058889
   2.8009231  18.8096905  13.9863739   2.2303028  18.6012573  14.7255793
   3.2639506  17.9938812  13.8294468  19.4272308  13.7259445 -14.5176048
  20.2505932  13.5086136 -14.0891237  18.9070911  12.9075069 -14.3124800
  13.0504570  -8.7052870 -40.8635445  13.2507257  -8.2340860 -41.7008743
  13.5590477  -8.1030073 -40.2231636  13.7549486 -23.2211266  37.6736908
  14.2427950 -23.5365410  36.9099808  12.8628416 -23.1803303  37.2563858
 -18.8210392 -45.3544693  -8.1329422 -19.7970695 -45.5502968  -7.8670592
 -18.7002525 -46.1624222  -8.6675062  35.0942268 -30.6102829   2.3870196
  34.9485016 -30.1839771   1.4849386  36.0210609 -30.7973785   2.2757916
 -38.5659866  10.7661295 -31.5441265 -39.2197227  10.1993475 -32.0244179
 -38.1572533  10.1300802 -30.9228840  13.9532957  24.3152256   2.4151301
  14.6796389  24.0141373   1.7663940  14.2381420  25.2641335   2.4063354
 -10.0398607  40.5237617 -21.0359421  -9.7175150  39.6482811 -20.7846622
 -10.5414858  40.7873192 -20.2198792  14.3682985  -4.6602168 -32.9691238
  14.6135044  -3.6876848 -32.7896385  13.4463921  -4.5654736 -33.0986786
   8.4091988 -32.5357513 -11.0205946   9.1447124 -33.0374146 -10.6105137
   7.6936774 -32.6365700 -10.3451033 -25.4253139 -37.9800186  11.6846085
 -25.9846478 -37.2635460  11.2681427 -24.5342712 -37.5464973  11.6548758
  -6.6200466  -1.1755651  13.5036993  -6.9033165  -2.0464156  13.9041739
  -5.6731906  -1.2278545  13.4680634 -28.6478424  27.6611824  -8.7825308
 -28.8112640  27.5379448  -7.8354793 -28.3824024  28.5933342  -8.8637085
  -1.5790213 -26.5954609 -23.0867939  -0.9816443 -26.5021877 -22.2508316
  -0.9067923 -26.3216801 -23.6994915   6.6128831  28.7857723  32.5183716
   5.8053608  28.4364223  32.9770584   6.3755178  28.4174309  31.6247349
 -27.5863533   4.6011853  38.3384743 -28.0601788   4.8681126  37.4850388
 -27.8141384   5.3645363  38.8918304   3.7010200  35.9986038 -27.3533478
   3.3058867  35.2727203 -26.8046589   4.6431336  35.9736633 -27.0471478
 -23.3955002  29.4695683 -29.9915447 -23.5498276  29.3326511 -30.9807701
 -23.5192890  28.5056973 -29.7437706  33.8035278 -14.6939878 -28.1284847
  33.7794151 -14.6236610 -29.0756969  33.9386368 -13.7479229 -27.8817883
  21.3169861  15.5570059   2.9489038  21.1021824  16.4515667   3.2473049
  20.3932190  15.2320719   2.7074907 -12.3872070  36.5703125 -36.8464127
 -11.3692608  36.5631409 -36.9703865 -12.4401054  37.2869911 -36.1943665
  24.7951298 -38.0488014  -4.6959476  24.8132458 -38.0113068  -3.7723711
  24.4783421 -37.1432991  -4.9231710  -0.4905759  -9.4335051  18.5725937
  -0.6020975  -9.1865578  19.5712299  -0.7329774 -10.3689289  18.6174049
  17.7289219  18.0965137  21.3857193  18.6295109  18.1772785  21.0082989
  17.4819508  17.1644115  21.1080685  -5.5522189 -23.5998573  -0.9076092
  -5.1743493 -22.6704273  -0.8487502  -4.7439194 -24.0983620  -0.6283838
   3.4210517 -34.3331871  27.8574829   3.0090685 -35.1977730  28.1169128
   2.6180868 -33.9199677  27.4474945 -12.3983002 -28.4417210 -13.8633766
 -13.2792358 -28.6745129 -13.7310133 -12.1369810 -27.8462772 -13.1686192
 -19.7803135 -23.7901039 -28.2013531 -19.0209827 -24.2599869 -28.6298447
 -19.3159637 -23.0751266 -27.6737099  38.9149666   7.1487527 -29.6118355
  39.8519020   7.0408726 -29.9235172  38.4753075   7.0038800 -30.4300270
 -43.4521179 -31.6684322  -7.9262223 -42.8590317 -32.3525352  -8.2660027
 -43.4142914 -31.9554482  -6.9652524  -6.3540483   6.1075916  -6.4323668
  -6.9892511   6.1635380  -5.6618161  -5.5917420   6.5276952  -5.9699388
 -43.9971886   7.2535381  -2.8899543 -43.5103798   8.1209068  -2.7313375
 -43.3560677   6.6515160  -2.4580455   6.8321800  -7.1074519  16.5582275
   7.4209156  -7.7805996  16.1873798   6.2181444  -7.0051765  15.8401995
  15.0461273 -33.4387894  33.6863060  15.0515947 -32.5945206  34.2693367
  14.4444904 -34.0047379  34.1876831   6.4295111 -35.2698746  -4.9903412
   6.4852467 -35.0189590  -5.9022055   5.6379795 -35.7998161  -4.9877396
   9.2459202 -20.1821423  29.6693420   8.6893673 -19.4718533  29.8825741
   8.6841469 -20.9507694  29.8480816  -3.7157078  22.7028389 -14.3960457
  -3.9013088  21.8196163 -14.6499977  -4.4342809  22.8649769 -13.7461462
  29.9118214   7.8556905  11.8726816  29.2579727   7.1769028  12.0127687
  30.4603519   7.7814960  12.6119699   9.6314831   4.3221154  29.3807259
   9.0593786   5.0601110  29.4755325  10.5139055   4.7128758  29.7194557
  36.4392853  -0.6111631 -15.9404640  37.1322784   0.1138624 -16.0115490
  36.5083008  -0.9473094 -16.8952904 -24.9671345 -36.2580185 -19.4978333
 -25.4644661 -36.3951035 -20.3477116 -24.5377483 -37.1304512 -19.4418964
  38.6375542   9.5084143  15.9396706  37.7142296   9.8905163  16.0052433
  38.4763603   8.7221317  16.5092850 -32.3798561  -8.4288254  18.4971333
 -33.1208954  -9.0383310  18.3237343 -32.2074623  -8.1714649  17.5546474
 -12.6262293  16.7786827   0.6598440 -13.0518360  17.2408314  -0.0863106
 -13.2903233  17.0049191   1.3890525   8.1110144  -2.8196614  25.1934109
   8.7944384  -3.4692583  25.5117188   7.9788542  -2.3264346  26.0643673
  17.5750656  48.5503502   5.8654690  17.1863327  47.9614830   5.2428031
  16.8931770  49.2293053   5.9756293 -19.8917503   3.9530416  22.3690376
 -20.8206787   4.3919358  22.3508282 -19.3314285   4.7472034  22.4891949
 -44.1726723 -14.3421478  -6.9567423 -43.6305237 -14.3922701  -6.1190991
 -43.7558479 -15.0899429  -7.4602504  26.1772385  35.0668144 -15.9337873
  25.9030418  34.1073570 -16.0646057  25.7791290  35.4934349 -16.6891060
 -28.8023548  22.7056293   5.3687568 -29.5634842  23.2369747   5.0834608
 -29.2364902  22.0308418   5.9269314 -32.8265457 -36.8747406  12.2273502
 -33.5858612 -37.3999138  11.9793501 -32.2197151 -37.1425972  11.4943943
  19.1981964  22.8009930   3.6101665  18.4407063  23.1752205   3.1170578
  18.7700806  22.0727558   4.0773230  11.0061541 -15.6946335 -49.4872551
  10.1821318 -16.0264320 -49.1176949  10.5881968 -14.9717331 -50.0355034
 -26.2170601 -36.5667496  -2.8844552 -25.5963478 -35.9288940  -2.5073235
 -25.6175365 -36.9947128  -3.5609496   0.6063532 -11.6256380 -13.8648930
   0.8270940 -10.7038946 -13.9200745   1.3002634 -12.0396070 -14.4081373
  41.7814293  26.0760727 -12.6717215  41.7625694  25.6292725 -11.8108377
  40.8339577  25.8480911 -12.9864540 -42.9471359  -8.3161697   7.8299637
 -42.7995872  -9.1646280   8.2540140 -42.0189552  -7.9866648   7.8974552
 -35.2664146  -9.8024645  15.2233429 -35.7301865  -9.3083906  14.5560131
 -34.5693893  -9.0961981  15.4602718  -7.9270015  33.6808968 -33.0251465
  -7.4374037  34.5361099 -33.1650352  -7.8590455  33.4205856 -33.9688110
  16.5853634 -39.2064018   4.3683352  16.5640755 -40.1721611   4.5590873
  16.8280678 -39.2682495   3.4642022 -12.7869110 -11.7345610   4.2389584
 -12.7355394 -12.2708673   5.0934887 -12.3065338 -10.9200659   4.6223898
  17.7014027  22.6300545 -24.8543930  17.1470585  23.3866177 -25.0773449
  17.6747627  22.1040649 -25.6544895 -22.7086945 -21.9333191   6.8415322
 -22.8092079 -22.0433655   5.9047298 -22.1203480 -21.1864643   6.9762321
  14.1993685  23.3645744  -7.6968408  13.3650513  23.5664330  -8.1780701
  13.9710541  22.4976234  -7.3187509 -23.0646610 -10.2729378  -2.8269289
 -23.0960388  -9.6386833  -2.0345774 -22.6640453 -11.0439682  -2.3321078
 -36.2330589 -33.0680847  -5.3520317 -35.3040237 -33.1188087  -5.2940555
 -36.4204979 -32.6505203  -4.4659123  17.5409374  17.2847328 -17.2641010
  17.3149643  17.2327042 -18.2500744  16.9455795  16.6115723 -16.9186306
 -35.9171333   1.6561944  29.7101784 -35.3601761   1.6115834  30.5039291
 -36.1625824   2.5896873  29.8019180  16.5750103 -23.9248066 -34.9770012
  15.8961811 -24.3793468 -35.5898361  16.7890587 -23.1355534 -35.5599213
   1.3214359  33.5626450  18.2121277   2.0591354  32.9579697  18.0689449
   1.4067513  34.1198578  17.3529072 -28.2794685  35.2065659 -20.5741482
 -28.0006332  35.9543190 -20.0021114 -27.4144535  34.9153175 -20.8994408
 -39.1857109  20.3956261 -20.1885281 -38.5262718  19.6607800 -20.3948956
 -39.0236244  20.9480209 -21.0111065   2.9125133 -43.4959373 -15.4578104
   3.7446001 -43.5402908 -16.0070667   3.2170758 -42.7478523 -14.7934713
 -24.3324184   2.0435159  -3.0503500 -24.7760315   1.7267687  -3.8613768
 -25.0478859   2.0091798  -2.4287362 -35.3282318  23.2001266  -9.5312376
 -36.1663322  23.4835434  -9.9205151 -34.9870262  22.5543671 -10.1564083
   4.6938715 -33.6498032   7.0825419   5.2731733 -32.9315681   7.1945496
   4.3539577 -33.8473511   7.9324832 -11.7515459 -28.6707039   9.7677269
 -12.4303598 -28.8775406  10.4938707 -12.4544754 -28.2829227   9.1571102
 -14.0054770  36.3175850   7.5973268 -14.2755899  35.7930107   6.7884965
 -14.7978687  36.9135170   7.7219486   7.2424417  18.8493290 -12.4898357
   7.4294381  19.7409325 -12.1050196   6.8093381  19.0520611 -13.3274879
   5.9416871 -21.5652351  20.7350883   5.3139176 -21.3097992  20.0114098
   5.5714974 -22.3492832  21.1253204  -5.7824130   9.6413994 -25.1942692
  -5.0971546   9.8590136 -24.5184326  -6.0655313  10.5288229 -25.4906101
 -26.0245609 -14.4020567 -17.4154034 -26.5200653 -13.8327436 -18.0258484
 -25.5780659 -14.9920559 -18.1029320 -18.1920929  40.4603882   2.6318634
 -18.9997997  40.0067749   2.9618948 -17.5170097  39.7820320   2.7335272
  43.1309738   3.5537963  -0.2508005  43.1603813   2.9441135   0.4819995
  42.7320213   4.3374567   0.2667424   0.9853777  26.3540573  15.4235125
   1.5763282  25.6169243  15.1172333   0.8237881  26.0257912  16.3347874
 -13.2783089 -13.8142958 -27.1756001 -14.0880165 -13.2611694 -26.9995003
 -13.5282669 -14.3068724 -27.9641094 -19.7508583  -1.9428482  31.6717892
 -20.2066650  -1.7156891  30.7997131 -19.4713383  -2.8404884  31.4670925
  14.3344164  -9.2865095  51.3847313  15.1325645  -9.6323137  51.7410355
  13.6651993  -9.5253601  52.0629425  25.7333183 -38.0034485  25.3150120
  25.5109062 -37.1105385  25.6307335  24.8988457 -38.3206787  24.9526482
  30.3692455   6.0834546  -6.6815820  29.3884563   6.0681152  -6.2640071
  30.1175156   6.1286335  -7.5953841 -21.9549313  -4.0327797   3.3611796
 -22.1750813  -4.6029649   2.5768642 -22.5541515  -4.4302440   4.0519004
   2.4304552  41.9362679 -28.3069172   2.2224038  42.9373245 -28.3111477
   3.4174418  42.0108910 -28.2935905 -16.9166222  29.7912273  24.9473190
 -16.1999531  29.6894474  24.3036518 -17.1135826  28.8293705  25.2061939
  24.1217022  22.6823368 -27.7329655  24.8307457  22.9276085 -27.1102238
  24.4925194  21.8769360 -28.1033897  -8.5830078  -9.2859364  43.6193352
  -8.1484528 -10.0926809  43.3270226  -8.4577427  -9.3449211  44.6091270
  10.5748329 -15.0170507  31.6648617   9.9682159 -14.4041796  31.2971439
  11.4626808 -14.7374907  31.3375702  38.0382729  14.7436638  12.5641794
  38.3743935  15.5325918  13.1328573  37.5767059  14.2729053  13.2917261
   2.7673719  28.6459770 -24.9803104   2.5608218  27.7346516 -24.7075825
   3.6902945  28.7622604 -24.8506165 -43.9720917   3.3989558  20.1959114
 -43.7430229   2.5059910  19.8666153 -43.1524773   3.6717284  20.5577602
  -4.3249369 -27.1492844 -31.1064777  -4.9191766 -27.8150711 -30.6275692
  -4.1354938 -27.6729679 -31.8662205  31.5772419 -15.1300793 -19.8526745
  30.8352757 -15.4353008 -19.3000183  31.6922359 -15.8977766 -20.4461803
 -30.1779118  -2.7694156  14.9363270 -30.8202286  -2.7635901  14.2408190
 -30.1481495  -1.8646542  15.3223276  12.0181551  43.5854149   3.6702647
  12.6288443  44.3677788   3.7273633  12.2413082  43.1786995   4.5445843
  30.2179317 -26.4443130 -24.8434162  30.6174908 -25.8746910 -24.1777763
  29.6246014 -27.0529575 -24.2753296  19.1901379  34.0034180  12.5321941
  18.5994873  34.1906548  11.8216305  18.9282303  34.7267342  13.1732159
   5.6298556  -2.8614755  44.5243187   5.3922486  -3.7078345  44.1052513
   4.8813109  -2.7122529  45.0678825 -18.5470390  -6.9850111 -20.9513607
 -18.6141968  -7.1435847 -21.8971558 -17.5944233  -7.1569695 -20.8070450
 -40.1400490  -4.8152251  16.1308594 -40.8466415  -5.4378595  16.1597977
 -40.0651169  -4.6164355  17.0908394  12.9267206 -15.1604939 -34.0905571
  13.4624949 -14.9357119 -34.8315468  12.2545509 -14.4310055 -34.0795784
  -8.9344530   0.0784872  12.2265358  -9.9136038   0.0380150  12.1279831
  -8.7220850   0.0097103  11.2813425  -1.1386777   0.9771107  24.7136116
  -1.6350491   0.6830456  25.4485950  -1.6213255   0.5507742  24.0032101
  22.5017624  10.8482857   9.2427473  22.5353279   9.9530087   9.6515789
  22.7518559  11.4046288  10.0188398 -28.1550598 -23.6000195 -20.8992443
 -28.8424377 -23.0429878 -20.4100266 -27.4646683 -22.8815212 -21.0143700
   3.5942893  38.0761681 -13.8353252   3.4352214  37.5476456 -13.0503302
   2.7763243  38.6300392 -13.8613548  14.9542265 -11.4289093 -19.9117908
  15.8740988 -11.4367743 -20.0840015  14.8773918 -12.2127419 -19.3535595
  17.1774693 -22.1749611 -31.8129444  16.6295986 -22.5045033 -31.0670700
  16.5736561 -21.5415306 -32.1986732  -3.7751966 -23.9315567 -37.3163033
  -3.6976967 -22.9568539 -37.0973969  -4.5297780 -24.1890659 -36.7242088
 -28.4143333 -10.7732277  21.3627987 -28.2806644  -9.8511667  21.0070248
 -27.6048813 -10.6821823  21.9924278  36.6137123  33.9712753   0.4969744
  37.4138794  34.2761726  -0.1478853  35.9507942  33.8283539  -0.1925278
  -8.1971865  -9.5714855 -17.6360245  -7.5677238 -10.0183640 -18.1958656
  -8.5661659 -10.2941618 -17.0615139  40.4901466  25.7588921  10.9089937
  40.5520401  26.1790619  11.7846298  41.2743301  25.1981487  10.9748688
  -2.0821068  -4.2808914  51.1433678  -2.5230172  -4.5181389  50.3256836
  -2.5150712  -3.4700110  51.4567528 -11.2658339  15.9204283  41.9153099
 -10.3809538  15.9981060  42.3819084 -10.8216095  15.9029217  40.9741783
 -33.2202606 -22.6481915 -24.9892693 -32.5232773 -22.9082985 -24.2948418
 -33.2931671 -23.5127678 -25.4600544 -14.6614084   2.2484825  33.1085396
 -14.4304113   2.6155877  34.0083313 -15.1032705   3.0578811  32.7157364
  39.4797058 -26.2366009 -18.6693459  40.3090019 -26.7387428 -18.8636513
  39.1338005 -25.9691639 -19.5515060 -32.4133415  27.1706257 -30.2139835
 -32.0215225  27.5753250 -31.0200233 -31.6278133  26.5243969 -30.0714645
  15.4154339 -33.6598129   0.7947800  16.2187767 -34.1705780   1.0488927
  15.4257174 -33.7464066  -0.2005407 -26.9258537   1.7755009 -20.0898399
 -26.5516605   1.7410556 -20.9851570 -27.0783901   2.7361448 -19.9795723
  42.5502014  13.9745350 -13.1532183  42.1880150  13.7278461 -14.1059742
  42.1094513  14.8711977 -13.0472908 -24.5285263  29.3686810 -15.2325497
 -25.3064365  28.8000851 -15.4927063 -24.9986115  29.9826698 -14.5964098
 -14.5337000  21.7660179  19.9284229 -13.9065189  22.2212639  20.4816437
 -14.6800938  22.4775238  19.2327442  -8.9175291  39.0985298  21.2348423
  -8.0607357  38.6189957  21.1288929  -8.6748466  40.0371323  21.2232533
  33.1099625   0.4052472  17.1925850  32.5271835   0.7230268  16.4340992
  32.4831123   0.5762212  17.9166050 -38.6717720 -20.1667519  -7.7273393
 -38.3809395 -21.1208611  -7.6173887 -38.2142525 -19.7803040  -6.9265256
  15.1536140 -26.3471794 -15.8959103  15.1405830 -26.6199455 -16.8346596
  14.7634935 -25.4441471 -15.9412374 -33.0080833  30.8937950 -24.3325500
 -33.5507088  31.5135174 -24.8748875 -33.5861549  30.7439365 -23.5881901
   5.6309228 -39.5977097 -21.4184971   4.7613287 -39.4257774 -20.9460564
   6.0773716 -38.7826767 -20.9980888  -6.8339748   7.4325285  40.6923065
  -6.8574586   8.1311665  40.0478973  -5.8586464   7.3108287  40.8311691
 -44.0593414  -7.6282024  20.3756542 -43.8321915  -6.7172289  20.5423622
 -43.2117844  -7.8737206  19.8750000   8.3002329 -31.1797771  36.9482117
   7.7622743 -31.6407509  36.2500534   7.5099912 -31.0238171  37.5622253
  16.8349838 -25.5477657  41.5402603  15.9328671 -25.3344822  41.5143738
  16.9617176 -25.5061855  42.5741196  38.2297821   7.7378044  32.4669914
  37.4521828   7.1965818  32.1329536  37.8959007   8.6233845  32.1776657
 -13.5752544  13.4762049  -0.8830293 -13.7686138  14.1243324  -1.6628627
 -12.7150574  13.1085443  -1.1160675  17.3374825   2.0464509 -23.8591042
  18.2196198   1.5663683 -23.9628677  16.8268547   1.3239639 -23.4836960
 -12.8951139  -7.4751239  13.9488716 -13.0285997  -8.2217760  13.3680077
 -12.0801086  -7.6830921  14.3918457  13.0235672 -11.6063433  34.4084892
  13.6064987 -12.4121742  34.3166656  12.1502314 -12.0515814  34.4431419
 -23.8311367 -12.2158279  17.4229145 -23.3410091 -12.0337934  18.2801895
 -23.2733078 -12.9780798  17.1340485   2.4844689 -40.0738487 -24.5115509
   3.2635212 -40.2664299 -25.0508156   2.7592413 -40.7575111 -23.8105927
  39.9889565 -14.2628899 -19.3865604  39.1205864 -14.6994648 -19.2550316
  40.3194199 -14.7569923 -20.1419621  16.1974182  29.3989239 -20.6686878
  15.7131052  29.2206535 -19.8436832  16.0498657  28.6405392 -21.1917400
  34.5842285 -19.7073421  32.0844574  33.6909294 -20.1800022  31.8939304
  34.9801788 -19.7586746  31.1959820  -6.1605892 -21.8122711  24.3911114
  -7.0289087 -22.1127892  24.6946621  -5.7473102 -21.6701927  25.2924576
   8.1640396  -9.9858513 -12.5385580   8.7467194  -9.3161097 -12.8802042
   7.3069096  -9.6849747 -12.9699354 -25.1152077   0.9655243  11.7006407
 -24.9954433   1.0680267  10.7758760 -25.0916710   1.9041697  11.9908257
  28.0895672 -30.6360073 -17.1810093  27.1953392 -30.4608860 -17.5177765
  28.0054512 -31.5091438 -16.8697948 -43.5171318   8.0527458 -14.2090197
 -43.0291138   7.2923789 -13.9077749 -44.2046852   8.2250443 -13.5104084
  11.8686123 -27.8610229   7.8007612  12.5847998 -27.2464542   8.0134935
  11.8497095 -27.8257504   6.8316035  42.8951492  17.0743847 -10.8597965
  42.5326500  16.7911243 -11.7433176  42.4960861  17.9832020 -10.7648964
   3.1476805  13.8980589   7.8753786   2.9233038  13.2715359   8.6450186
   2.2191939  14.1709681   7.6423674   9.4087543 -19.7807751   7.9906287
  10.3130226 -19.9633541   8.3283758   9.2996759 -20.5830383   7.3971143
  38.6182632  20.8665009  13.6377182  39.1796799  20.7378922  12.8520679
  37.9066734  20.2147923  13.3329983 -15.0023699  27.8761272  12.3949862
 -15.6415215  28.0448780  11.6776361 -14.6122837  28.7030277  12.5459394
 -43.0574074   0.6894960  -6.8395042 -42.9739304   0.4112940  -5.9259038
 -43.9050522   1.1608673  -6.8062568  29.1185570  -6.0714645  26.8485794
  28.5164032  -5.8613124  27.5773296  29.7729397  -5.3426204  26.9281063
  12.8151417  17.3673401   4.9426637  12.1387157  17.3208084   4.1908960
  13.2798281  18.1910534   4.6849303   1.6546303 -15.4218645 -23.7765217
   1.2318821 -16.2604084 -24.0976067   2.2786679 -15.2290173 -24.4467945
 -15.5926285  37.5151634 -18.3059883 -14.9804525  38.2403870 -18.2843323
 -15.0263767  36.7882957 -18.6791687  -0.0826280 -44.5502396  10.6586304
   0.4495790 -44.2539520   9.8708000  -0.8262649 -43.9160233  10.5358334
 -12.7357225 -10.1017389 -18.1967964 -13.4222288 -10.0440502 -18.8909206
 -12.1979055  -9.2911367 -18.4200249  10.1624680  11.7632217 -15.6423349
  10.3740187  11.8651943 -16.5858250  10.1078787  12.7163048 -15.3924971
  23.7784843 -19.2486076  16.9333477  24.3434410 -19.1084919  16.0851479
  23.1084747 -18.5211010  16.7876511  25.8133373   2.8243074 -37.3017616
  24.8864193   3.2087731 -37.1816254  26.2771568   3.5671275 -37.6549034
   5.2989454   9.8555994 -29.9788895   5.4806032   8.9858017 -30.3106823
   5.3837004  10.4642286 -30.7547455  37.7916222  17.2636833 -25.2129364
  38.2109985  17.1112003 -24.3206100  36.8802452  17.4693642 -24.8340378
 -20.5415592 -37.9284668  10.0668888 -20.7455482 -38.6642494  10.6317616
 -20.8302574 -37.2092018  10.6042242 -10.8255501  25.0307522 -25.3477936
 -11.4836769  24.4397240 -25.7661324 -10.4905834  25.4898090 -26.1469460
 -17.5615120 -33.5065269   4.9359632 -17.3645210 -34.3081169   5.4866557
 -18.3248711 -33.8707504   4.4199820  29.5710678  30.8897915   1.4955018
  29.4945793  30.3590565   0.6706218  30.1540966  30.4092941   1.9999256
   7.9674091 -11.0338287  29.5808392   7.0293279 -11.0174217  29.6756973
   8.0967798 -10.7053709  28.6571789   7.7445793  -7.7384896   8.9791613
   6.9406881  -7.9100027   9.5049706   7.3631568  -7.7399940   8.0371485
 -18.9111843   2.1818445 -27.9742393 -19.0791988   2.4657359 -27.0282192
 -19.4343815   2.9855549 -28.4280243  29.4006252  16.9478359  14.2053909
  28.7065010  17.6292191  14.2234898  29.0368309  16.2604809  13.6422253
   4.5999889 -40.0060043 -31.5894604   4.5477028 -39.7552719 -32.5349541
   4.4334173 -39.1648712 -31.1832294  26.2420101  42.0217896  -8.0743866
  26.1158772  42.4773483  -8.9098082  25.5982265  41.2860565  -8.1875134
  -1.7256744  18.0382538 -28.5911922  -1.5948189  18.6108818 -27.7833004
  -2.2154973  17.3097954 -28.1725979  33.6558151   3.1395392  29.5662155
  32.9437218   3.6419730  29.9529133  34.3973274   3.8263853  29.6029072
 -12.6672745  26.2723751 -28.0081596 -12.1594009  27.0646114 -27.8628941
 -11.9658880  25.6157284 -28.1879787   0.4051521  -8.3630428 -49.0083275
   1.2212425  -8.7158613 -49.3311844   0.6491374  -7.4329410 -48.7547531
  38.9480400  14.7540216 -18.6821041  38.5203171  14.6047382 -19.5870609
  38.2165413  14.6188555 -18.1154041 -15.9096022  15.3304586  34.9456367
 -16.6282730  16.0253906  35.0128250 -15.1947355  15.9974976  34.7940674
 -33.8467636  26.6362534  -7.7119431 -34.1664009  27.4098473  -8.2761345
 -33.6738281  26.0753326  -8.4606133 -16.9488945  34.4986572  24.4621334
 -17.6866798  35.1752739  24.3715973 -17.0096893  34.4379425  25.4875717
 -15.9705658  12.7602377  33.2535172 -16.8738689  13.1412706  33.4612198
 -15.5785122  13.5635605  32.8450356  17.3516140  29.2829571   2.5474033
  16.6593342  29.9504414   2.3157146  17.8971310  29.2646942   1.7567027
 -12.1957207 -42.5800133  -9.0519075 -13.0815077 -42.4844208  -9.2936859
 -11.8271751 -43.1078491  -9.7618914  37.0137062  -5.2222056  34.2575569
  37.9668121  -4.9865460  34.3479424  36.7043571  -4.3681750  33.8383675
  11.3634663  -7.6045156  40.0626907  12.2264709  -7.2924008  39.7665253
  11.1481705  -8.2942820  39.3873329  -5.6328897 -37.3735657 -22.4023476
  -5.7460747 -36.6140594 -21.8245869  -6.4433360 -37.3227921 -22.9191818
 -41.9596863  11.7658195  -4.8599038 -41.4550171  11.9336643  -4.0153646
 -42.4135056  12.6553793  -4.9166832 -36.0641708   9.5701027 -16.1611195
 -35.8123894   9.0548477 -15.3891840 -35.1702957   9.8531742 -16.5234241
  10.5553350  -1.6919154 -33.0809746   9.6089764  -1.6681125 -33.3513298
  10.8207140  -0.8776483 -33.5217896  35.3580055  13.7015305 -23.7132778
  35.1242447  12.7433195 -23.6096268  36.0096893  13.6125784 -24.4181118
 -32.4369545  -7.5108004 -34.4813881 -33.0973167  -7.1906013 -35.1032410
 -32.9160004  -7.6062136 -33.6434822   3.1925607  41.8147392  24.8478966
   3.5623751  42.5581932  24.2389679   2.2769129  41.7295113  24.4517403
 -37.2476196  20.5212250 -30.5966988 -37.9698563  20.6877117 -30.0136433
 -36.5313416  20.3192978 -30.0008965   0.5569569 -10.1254539 -43.6346359
   1.2241356 -10.6825943 -44.1381111  -0.2080507 -10.2054758 -44.2113762
   7.2074389 -44.5351067 -22.0767708   7.4466081 -43.6169434 -21.8545780
   7.8263993 -45.0671043 -21.4744854  24.1673698 -22.9850178  32.8946457
  23.6835003 -23.6075191  32.2794151  23.6084442 -23.1282082  33.7090225
  32.5516281  27.3796883   7.2535338  32.7446709  26.4437008   7.0257158
  33.0345726  27.5267315   8.0552940   1.6666499 -20.3384781 -21.1187782
   1.5187005 -21.2181034 -21.5776310   0.8165223 -19.9064083 -21.2349644
  16.6293888  17.6855659  -9.5066872  17.4014072  17.4211731  -9.0587053
  17.0891151  18.0014305 -10.3673716 -17.4442902  23.7773876 -40.4731865
 -18.3379269  23.5506611 -40.8259468 -17.5821495  24.7141953 -40.3789673
 -34.8416214 -16.9892101  24.9698524 -35.3546791 -17.7992573  24.7797832
 -34.3373680 -16.8472614  24.1793900  38.8806076 -29.1386261   8.9064283
  38.4841194 -28.9130859   8.0340338  38.1448708 -28.8712482   9.5064745
 -41.3647690   8.7482805  19.7272911 -41.7402229   9.0762091  18.8888397
 -41.9657669   9.2241850  20.3334579   7.9627023   3.4284365  12.6997414
   7.3126411   2.6758358  12.7103853   7.7491794   3.8657234  11.8254156
   1.0413853  -4.5443363  -9.7203960   1.3846099  -3.7222588  -9.2484674
   1.7827994  -5.1707149  -9.6147089  24.0703526 -35.2404022  -5.0956273
  23.5800552 -34.8340378  -4.3813353  24.0720387 -34.4978142  -5.7683997
 -18.4452801  19.8227997  37.8179131 -18.3694515  20.6419125  37.3186684
 -17.5198898  19.7279072  38.1969414  -0.3228771 -25.8702011 -11.2947073
   0.0308077 -26.7503262 -11.1353006  -0.0650982 -25.8138390 -12.2947788
   4.5322194 -17.1180439  14.5934763   3.9095907 -17.8974380  14.3964930
   4.6521277 -17.2310181  15.5546036   7.5386786 -22.1954575 -13.0378580
   7.4984269 -23.0439415 -13.5582037   6.6229095 -22.1944389 -12.7325182
 -14.4360647  30.4051666 -18.0075760 -14.4830379  29.5614491 -17.4984684
 -14.5306959  30.0086575 -18.8935089 -31.7631073  -2.9478755 -12.8012486
 -31.5827465  -3.7423894 -12.2711544 -31.7414360  -3.3668735 -13.7376461
  43.3006783   8.9005365 -12.4681902  43.1506081   9.8764458 -12.3707619
  42.5745926   8.6651554 -13.1519356  25.5093441  31.3105793  21.6390800
  25.8686104  31.5506744  22.5329514  26.1724548  31.7581215  21.0653496
 -22.6718636  12.1119547  17.3211079 -21.6813393  12.2000341  17.5710354
 -22.7674370  11.1798735  17.1276360  22.7508850  -6.9788127   7.7418895
  22.3378716  -6.8651395   8.6537323  21.8661556  -6.9309120   7.2660799
  42.8180809   2.1647022   2.0430825  41.9168739   1.9624269   2.4015825
  43.2543526   2.4247987   2.8560836  16.4249077 -27.9616108  -1.7475340
  16.1360931 -28.8007145  -2.1876926  16.8509007 -28.3767643  -0.9679796
  40.6089287  -3.6319182   3.4652042  40.2533455  -2.6922162   3.2877769
  40.4774437  -3.9783368   2.5855281 -14.3225546 -51.6785011  15.3909645
 -15.2759895 -51.4166985  15.3604794 -13.9069948 -50.8254890  15.1953011
  -9.7771425   8.9215126  -9.1701193 -10.2263613   8.1356754  -9.5951385
 -10.2728052   9.6439590  -9.5438557   2.2402737 -27.3613548  -4.8998871
   1.4639134 -26.9595947  -5.3613319   2.1190743 -28.2830105  -5.1293354
 -10.0219679  13.3002195  17.0594330 -10.0123196  12.3246355  16.9841976
  -9.2674913  13.5081139  16.4575367 -23.7135067  19.2959576  10.2960863
 -24.6309357  19.1529140  10.0579920 -23.7255325  18.9760475  11.2315302
 -26.5152321  -1.2550253  -5.5681219 -26.0570526  -0.4379665  -5.3829503
 -27.4489021  -0.9407036  -5.6534610  20.1127243  17.1621666 -30.4171352
  20.5036068  17.4110107 -31.3034420  20.8745384  17.3848190 -29.8174210
 -23.2275600   9.3719587 -28.6783714 -23.5280895  10.0177422 -29.3652210
 -22.3000488   9.6320820 -28.6350708 -10.5911283  29.6874676 -14.7986059
 -11.3621845  30.3077679 -14.8181629 -10.0787182  29.9774723 -15.5569696
  10.5457945 -22.9144459  24.7761288  10.2020254 -23.8899937  24.6859570
   9.9652596 -22.6380005  25.5082130 -14.8970337  28.1561890 -16.8157730
 -15.7476635  27.8617058 -17.0286598 -14.5510101  27.5151920 -16.2027626
 -44.2280350  12.0213299  -1.9306911 -44.0843811  12.9714832  -1.8455653
 -44.8474922  11.8906088  -1.1480467 -21.4266624 -23.9442787  23.5948162
 -21.9963264 -23.1954746  23.2720222 -21.8207874 -24.6174793  22.9809208
 -31.6419430   8.4070244  18.9102745 -31.0976505   8.8806248  19.6076336
 -32.3015099   7.9990420  19.4971828  32.2989540  -0.2782314 -28.7339687
  31.5337086   0.0876787 -29.1937885  32.9261398  -0.4165256 -29.4792404
  18.8165455  15.2458706 -28.1198368  18.1874409  14.4181290 -28.1686821
  19.2910366  14.9520359 -27.2774143   1.7432463  30.9340858   4.7109795
   1.4739598  30.0504036   5.1156759   1.8171635  30.6407013   3.7390480
  37.0713196  30.8843708  20.1336498  36.5962486  30.0079079  20.1591568
  36.5802383  31.3836842  19.5139484  22.6805592  18.1072674 -20.1155128
  22.1232624  18.7798576 -20.5528107  23.5979137  18.4219398 -20.3344841
  27.8778229  41.6006966   7.3724570  28.5452156  41.0296288   6.9941740
  27.0818062  41.1369972   7.2533369 -14.9725704  -7.0147681  -7.3040972
 -15.9415560  -6.8220968  -7.4772530 -15.0133038  -6.9492474  -6.2833700
   4.5780768  12.3485136 -26.9016857   4.4347758  13.3167295 -26.7519932
   5.2778783  12.5113153 -27.5874462 -20.7800884 -40.3634071  11.5145302
 -19.9406185 -40.7742538  11.5365419 -21.4313869 -41.0653343  11.8123016
  15.5972881  34.9319649  -7.1520357  14.8681087  35.5086975  -6.8838811
  15.8573122  35.3740349  -7.9795341 -35.8899612 -25.0758095  13.1485453
 -36.5124207 -24.7858505  12.4600153 -35.1279678 -24.5427723  12.9404821
   9.3257399 -39.1610603 -32.4994965   9.5626011 -38.2525444 -32.8871307
   8.9075298 -39.4801292 -33.3428726   4.1600242  33.3199501  20.0072708
   3.6631610  34.1177826  20.3883114   4.2544336  33.6060143  19.0860386
 -38.1830559 -11.0254755 -11.1987276 -37.9996262 -10.0812149 -11.3746042
 -38.8144417 -10.9103775 -10.4550190 -18.7664680 -12.9860783   5.9584932
 -18.5598202 -12.0846024   6.1872392 -17.8632374 -13.3860254   5.8512139
  10.4241171 -27.1294079  28.6401691  10.9303570 -26.5386734  27.9663086
  11.1192608 -27.4677277  29.1311474  -4.5370269 -20.6589108 -39.9365044
  -4.5701551 -20.1590710 -39.0503235  -5.2007771 -21.3174057 -39.7653198
 -24.5450287  -8.2789059  35.0598946 -24.8010445  -7.3388667  34.8965187
 -23.5869637  -8.2707253  34.9690590  -2.0456905   0.3009116   8.1263990
  -2.1501517   0.8801382   8.9441967  -1.0781808   0.1335147   8.0968256
   8.2865305  28.8371372 -29.7820053   9.2043858  28.8128681 -30.0923576
   7.7731442  29.2712746 -30.5330639 -19.9336071   6.2767434 -13.9626665
 -19.4151630   5.8902192 -13.2529259 -19.3712482   7.0782800 -14.1545000
  -4.1754017 -38.4039268 -18.4616413  -4.1777811 -39.3239021 -18.2942905
  -3.4254236 -38.1465797 -17.8472500 -13.5617075 -10.9137611 -13.5661983
 -12.8718910 -11.0032778 -12.8528843 -13.4697800  -9.9084320 -13.6145658
 -15.1998892  10.8889217  27.7646770 -14.3705292  11.1383572  28.3135948
 -15.4664698  11.7959833  27.4575787 -35.2081604 -17.7855129  15.1306229
 -36.1299934 -17.4771214  15.0571632 -35.1719742 -18.0496941  16.1055603
 -30.0586185 -18.3927479   3.9343243 -29.2328491 -18.6677799   3.5118201
 -30.2805080 -19.1409111   4.5314698   4.3494864  24.3108616  22.0084286
   4.9723163  23.8416519  22.6197796   4.0049014  25.0065460  22.6204376
   4.4971728 -23.7740574  26.3988132   3.7098517 -24.1466522  26.8401318
   4.1119070 -22.9646244  26.0457458 -17.9164276   5.1051445 -12.0774851
 -18.1437111   5.7362313 -11.3474674 -18.1250916   4.2263823 -11.6436110
   0.5285080   7.4583049  26.1093998   1.1313294   8.1392832  26.3500690
  -0.2620886   7.7181454  26.6690578 -24.6072006 -30.4121208   8.1977072
 -25.4805470 -30.8021202   8.0114431 -24.8921127 -29.4752159   8.2382889
 -39.0720863 -29.5532894   4.6439118 -39.3145409 -30.4552288   4.3220057
 -39.2052498 -29.0339622   3.8168921  11.2320509 -27.5991535 -20.4131927
  10.3373213 -27.9943352 -20.3004303  11.4267626 -27.7544632 -21.4000053
  21.4219532  25.5790806  22.1408596  21.5951004  24.8358231  22.8096085
  21.5551891  26.3466282  22.7635422  42.6720848 -25.8744926  19.7621269
  42.8384018 -26.8427334  19.9070721  41.7504425 -25.8373547  19.6397514
 -24.9496403  23.0193157 -30.2300777 -24.4430199  23.0883217 -29.3853588
 -24.2481995  22.6510181 -30.7431870  15.0983210 -27.0775948 -31.8811283
  16.0123501 -26.9668617 -31.5104103  14.9146452 -28.0258293 -31.7483883
  17.9876461  16.3460960  -0.2851069  18.3022137  15.4445400  -0.5691490
  18.2978210  16.8498764  -1.1024872  22.7579136  29.0865135   9.1547899
  22.7595730  30.0831261   9.3704033  21.8117733  29.0163021   8.8559313
 -17.0353394 -22.4271374   9.5321445 -17.4105129 -23.3333874   9.7611046
 -17.8124790 -21.9186058   9.8940744  25.0766296  -6.8309445 -10.3057299
  24.8648434  -5.8825359 -10.2139492  25.0610600  -6.8379755 -11.3084822
 -31.7784100 -16.5833435  16.2832184 -32.2306862 -16.2766056  15.4278526
 -31.9268112 -17.4777184  16.2625160  25.0583687  20.7879620 -31.2617168
  25.3462448  20.0335941 -31.8291512  24.2244644  20.4304390 -30.9594860
  33.9825249 -27.5027809  15.4371920  34.9212723 -27.5976124  15.1489258
  34.0712852 -27.5359535  16.4243660  27.5802097  -3.6605077  38.4397278
  27.8108177  -4.3199377  37.7676964  27.3053360  -4.3010035  39.1910362
 -31.2513275  -5.1674585 -11.2249479 -30.7831230  -5.9996881 -11.1591721
 -31.8461094  -5.2381477 -10.4324884  37.4689980 -30.9060612 -10.2662783
  37.0318298 -30.6908455  -9.4029055  37.6431847 -29.9500332 -10.5387735
 -20.5238113  28.1058216 -16.7994976 -20.1201115  28.0590343 -15.9053783
 -19.7222672  28.4488239 -17.2958336  31.3582668 -20.5186062  19.2520237
  31.1680546 -19.9914131  20.0231838  31.1662388 -21.4121780  19.5925236
  19.1006985 -36.3655510  -1.2947564  19.1461048 -35.9514999  -0.4226331
  18.1732254 -36.6690865  -1.3076652   5.6662440  18.0213966  33.4433670
   6.3122554  18.1760216  32.6685066   6.0469437  17.1639576  33.7283592
  27.9082146  29.1057072  16.9779320  27.3098717  28.5802231  16.3319092
  28.7555523  29.1061077  16.4633503 -26.5421295   2.3011529  41.3410263
 -27.4653225   2.3763726  41.0767021 -26.0347881   2.8255780  40.7102814
   6.5700912  -9.0777359   6.8301201   6.4151235 -10.0245342   6.9763784
   5.9962735  -8.8967123   6.0776787 -27.6161156 -23.8521805  -1.9834452
 -28.4031143 -24.1393032  -2.5448167 -27.6803036 -22.8856869  -2.2182918
  37.0649796 -18.1755695 -19.4046459  36.7346230 -18.0227947 -18.5006695
  37.1747742 -17.2724228 -19.7315044   6.7626166 -25.7231159   4.5374069
   7.1210213 -25.6026115   3.6352479   6.6208405 -26.7139320   4.4822435
  34.7007942  -4.4944959 -18.4955673  35.6381607  -4.4905539 -18.3434982
  34.6157074  -3.8893940 -19.3414326  -5.2716799  15.3271027 -45.1488495
  -4.5499582  16.0300121 -45.4139252  -5.1503515  14.7279091 -45.8912010
 -15.3836098 -12.3750114  36.3303833 -15.3438091 -13.3565292  36.3870049
 -14.4360676 -12.2213297  36.1937714  22.3433018 -13.2214651  27.5387249
  23.2604771 -13.3544931  27.2742863  21.9638920 -14.1174402  27.3487167
  43.1690025  -2.3973005 -19.3220406  42.7640114  -1.6083376 -18.8919907
  42.3304482  -2.6888926 -19.7823925  22.0366039 -26.4963818 -23.3347702
  21.1564655 -26.6794090 -22.8880882  21.7131844 -25.8267517 -23.9672718
  30.4903641 -20.1768475 -27.9610786  30.9708385 -19.6046619 -27.2965069
  30.4299774 -20.9861164 -27.3520393 -25.6612549   9.0836678  33.7331924
 -26.5683403   8.7268419  34.0062752 -25.2160816   8.8546391  34.6072807
  -3.3163965  15.5753803  43.7085686  -2.6214957  15.3265953  43.0048141
  -3.9722383  15.9056921  43.0918884 -20.3900509  12.5444269  48.2421036
 -20.2931099  13.0869226  49.0315132 -19.9343338  13.1012621  47.5815163
 -23.7788372  -2.7568388 -40.6973228 -23.9136753  -3.3963509 -41.4644737
 -24.7208061  -2.6042838 -40.5301018  21.1730003  25.4485302 -22.0430756
  22.0561504  25.4737930 -21.6405869  20.7189713  25.0219917 -21.2776012
   6.9182606  40.4432220 -22.9873238   7.6116157  40.6655464 -23.6931515
   6.5822721  39.6109276 -23.3376942  11.8701363 -16.5804901 -36.9308052
  12.2843466 -17.3987846 -36.5102234  12.4733067 -15.8901558 -36.6072350
 -15.8466358  18.2590504  32.8769264 -15.0400906  17.8142166  33.2377853
 -15.9497156  18.9064713  33.6218529  12.0270844  25.0608654  13.6873960
  12.4550400  25.8267727  13.2812614  11.0871305  25.1492157  13.3815746
 -15.6339283   3.7762876 -23.3216248 -15.2849674   4.6468177 -22.9602737
 -16.1012001   3.9904015 -24.1461143 -11.0848446 -31.4662800   4.4154339
 -11.1890306 -32.1855049   5.0345340 -12.0231133 -31.1697807   4.4069352
  25.9144821  -1.6912351  26.2670460  26.2914314  -2.3910758  26.8548050
  25.6151352  -1.0700790  27.0255985  28.0093689  36.9206200  11.6794157
  28.1087914  36.9696846  10.7157612  29.0005932  36.8700218  11.9073372
   2.4453738 -25.3903732  36.5742645   2.7058060 -24.7174530  35.9063835
   3.2372046 -25.2515583  37.2286682 -35.1240501 -18.7545185 -16.5169010
 -35.8223076 -18.4157047 -15.9289742 -34.7791977 -17.9518642 -16.9394455
   1.3045682 -20.7508144  -9.0671043   1.4913113 -21.7071247  -8.8847580
   1.8694823 -20.3946571  -8.4070082  -3.6059968  -7.5664420  -0.2191351
  -4.1848302  -7.2316399   0.4909565  -2.9805038  -6.8370953  -0.3690630
  11.2894850 -10.2837029  -1.0277904  10.6770992  -9.8392763  -1.6880243
  10.6279774 -10.7142820  -0.4713292  -7.2952466 -33.9079399  15.4561806
  -6.6326356 -34.5448799  15.8604202  -6.7149568 -33.1002693  15.3659382
  -8.9842958 -15.0782576  34.6494141  -9.5732775 -14.4691725  34.0680275
  -8.6018906 -15.5863113  33.9426079   6.7361403   0.3894201 -12.7789574
   6.7908001  -0.4020514 -12.2916489   5.7791204   0.6909411 -12.7776842
   7.0139866  12.7137947  33.0973473   7.3143830  11.9614687  32.5807495
   6.4996018  13.2351017  32.4409981  -0.6768609  -3.3395047  27.4599247
   0.0699862  -3.4683275  26.8186321  -1.1467128  -4.1387744  27.3412971
  33.2691498 -23.5840034 -26.8712997  32.6510468 -23.4943581 -27.6364269
  33.5585823 -24.4825230 -27.0189514  -1.8169028   9.8988218 -30.4027348
  -1.2261740   9.1403713 -30.2571030  -2.5175536   9.7802362 -29.6916161
  31.0335274  22.9544716 -24.0472946  31.7691307  23.1970081 -23.4337921
  30.5894222  23.8304043 -24.0748901  15.2874613  -4.3735409   7.0048709
  14.3522635  -4.3410368   7.0704174  15.4846306  -5.3358464   7.1481490
 -11.3911009  16.5288010  27.4692135 -10.4393158  16.5787029  27.7697506
 -11.6192093  17.4613419  27.7673721  35.1540451  16.6163826  15.1824255
  34.8512459  16.9539318  14.2599125  35.0819092  17.5389080  15.6062679
  32.1756477  11.1302576 -21.9568062  31.3628922  10.8242636 -21.5979805
  32.0985069  10.9807549 -22.8964539  11.2939939 -31.9893780  34.6252289
  11.9591990 -32.4205780  35.1861839  11.4229965 -32.3645782  33.7575035
   0.5247549   0.5258277   1.3620082   0.2440550  -0.0895739   0.6642042
   1.4825324   0.5341926   1.1435217  -9.7294445 -11.2042570  -9.4890623
  -8.8256502 -11.4782104  -9.7712173  -9.4243164 -10.3545380  -9.0550461
 -34.7588844  -9.8599186   0.9313421 -35.3676491 -10.4706764   1.4138483
 -33.9119682 -10.0654993   1.4199945 -25.4864159 -41.1943207 -10.8332520
 -25.7087307 -42.1680756 -10.7604961 -24.5583019 -41.2108612 -10.7848902
 -26.6724319 -23.4732475   7.4530945 -26.4993534 -22.5301723   7.6544709
 -26.8166008 -23.3912220   6.4651780  -3.2961576  -7.3705921 -12.6841984
  -2.5976193  -6.9643574 -13.1852741  -4.0802002  -6.8256550 -12.9751472
 -14.1899567  12.8419409 -10.0685816 -13.4157982  13.4209557  -9.9309473
 -14.3706188  12.5344572  -9.1575680  24.0766144  38.9075317  19.2207508
  24.2334557  39.8836136  19.1819878  24.8079662  38.5194359  18.6964283
  -6.2947669  17.5565357  25.8648148  -7.1893592  17.2730007  25.4643784
  -6.6898623  18.2710800  26.4491177  15.4357290  -4.7993927 -11.3978996
  15.2609358  -5.6486487 -11.8463545  16.2804127  -5.0921798 -10.9552059
  -6.3456035 -10.7582788   4.0512538  -6.7617226 -10.0428371   3.4782934
  -6.4871111 -10.2290087   4.9354668  21.6830158   2.6895354 -10.5853024
  21.6199646   2.4732442 -11.5790968  21.5891800   3.6337411 -10.6002502
 -42.0825691  18.3624210 -12.7525854 -43.0170555  18.1735878 -12.5479202
 -41.6513519  18.1893177 -11.9351330  -6.3388700  16.6333256   5.1455531
  -6.3756604  16.2862854   4.2346468  -5.6340990  16.1029053   5.5313745
 -34.5995789  22.4213238  22.1849823 -34.7548981  23.2410336  22.6820011
 -34.1256599  21.8955727  22.8004398   1.7691208 -14.7128820  11.9009800
   1.1401151 -15.4197674  12.2286978   1.8036265 -14.1534910  12.7066603
  39.6941338  26.7682400 -22.1099052  38.7435913  26.4225922 -22.0142345
  39.7186546  26.9922485 -23.0226326 -20.2882099   1.2608074  -6.0877953
 -21.0621948   0.6837193  -5.8007932 -20.7687798   2.0743771  -6.4023786
 -33.9793091  13.5365534  31.7183056 -34.0728111  13.5162764  30.7599983
 -34.2963142  14.4661350  31.9501057 -21.3893566 -44.2437286 -16.3371601
 -21.9951077 -44.2644730 -15.5579252 -21.1335278 -43.3271370 -16.3509922
 -12.0083208 -24.0170765  18.3425541 -11.7544689 -24.9281254  18.6838551
 -11.1713476 -23.6834145  18.0654831 -17.2088051  -0.0252728 -13.4976950
 -18.1114559   0.2383761 -13.3859510 -17.3223686  -0.8731329 -13.9908485
  14.6921358 -13.2040501  -4.1357937  13.8503160 -12.9923124  -3.6725566
  14.2390232 -13.4784975  -5.0179124  33.7896957  27.9816933  -0.7956764
  34.2779465  27.9080334   0.0065342  34.2847557  28.7120705  -1.2495121
   8.1980591 -11.4854860 -27.0865059   8.9599113 -11.0957594 -27.5080891
   7.8934970 -12.1223230 -27.7733650  20.4712887  34.2701759 -19.9107075
  20.3904877  35.1214333 -20.3895779  19.5597191  34.1930962 -19.4963188
   5.3084021 -18.7979107 -35.8585167   5.6771669 -18.0263062 -36.2976608
   4.5529232 -18.3187790 -35.3684425 -12.2806206  -5.5333338 -30.4873734
 -11.4650221  -4.9775877 -30.4611282 -11.8160849  -6.4384246 -30.6291180
 -37.4398079 -14.4663239   6.1499648 -37.1131439 -15.4321127   6.0465026
 -38.0618629 -14.6240072   6.8928499  21.0544548   5.3972888  -3.5566881
  21.5029202   5.7928524  -2.7317181  21.7820797   4.8534017  -3.8836496
  21.1266174  23.4844303  -6.8649864  21.6587353  23.6948605  -6.0880241
  20.2221355  23.6753788  -6.5412478  -1.3331823  26.3305359 -33.1225014
  -1.4737867  25.4186172 -33.1960678  -0.3754366  26.4046764 -32.8171349
  13.0355797 -28.4216557  15.6978436  12.3260355 -29.0708714  15.6832180
  12.6301641 -27.8298111  16.4024715 -16.9725857   4.9504800 -50.4184685
 -17.6971340   5.3737402 -49.9210472 -16.2061977   5.3742380 -50.0017815
 -20.9791908 -43.9680061   8.2362261 -21.8044434 -43.4730530   8.1166983
 -20.3072357 -43.3277016   8.0546761  39.8842735  13.8777771 -24.3020344
  40.1022758  14.8372707 -24.3078880  39.3062248  13.8432741 -25.1264534
 -16.2009277   3.4207020  -6.7369385 -16.6909218   3.8199420  -5.9879746
 -16.8204098   2.6643169  -6.9171910  35.5165634  29.1323547  22.4261208
  35.9487648  29.9510136  22.7917252  36.2127228  28.4928265  22.4314594
  12.9216232  33.4032669 -22.6480942  13.2810946  32.5187912 -22.7452602
  12.0528803  33.3872147 -23.0519066  32.1707153 -33.6031342  -4.9905467
  32.7678909 -34.3313446  -4.6779351  32.3223381 -32.9686432  -4.2957077
  -9.9989653 -28.7567883 -21.2460003 -10.8007431 -28.2492847 -21.0470924
 -10.4130869 -29.6632748 -21.1401424  -0.3062576 -19.2767944  13.1000767
  -0.8488274 -19.9865913  13.5610905  -0.4468162 -19.5721817  12.1685991
  24.9273891   7.7400417  15.6486378  24.1210461   7.1759768  15.7651720
  24.7630272   8.0486460  14.7335758 -20.4038887 -34.5948715  -9.9725447
 -20.3361588 -34.4950981  -8.9760170 -19.7858448 -33.8945274 -10.2764444
 -34.5519524  16.2660408  31.2244568 -34.3779945  15.8026752  30.3933220
 -34.2238922  17.2004662  30.9919300 -10.6859159  -6.6975312   0.8658803
 -10.3270235  -7.1703610   1.6408169 -10.1618404  -7.1750135   0.1478603
 -19.7676086  20.6881008   3.3388808 -20.4014702  21.3567257   3.4265959
 -18.9006176  21.0931549   3.4685674  17.0295830  25.9432888  23.0175552
  17.5087070  25.7289257  22.2068214  17.8136749  26.3411751  23.4853344
 -21.7765999   3.7141807 -35.0174675 -21.2808819   3.8790758 -35.8747063
 -21.8515549   4.6231766 -34.7499428  -8.8143206   1.6042019  -8.3228579
  -8.2391186   1.2615530  -7.6428843  -8.7698526   0.7957019  -8.9397173
  21.4339638 -14.0286474  -3.1234105  22.2703571 -13.8943253  -3.6173897
  21.5712032 -13.4758263  -2.3227615 -15.4436274  32.0662880   2.8560901
 -15.5746613  32.9856071   2.9726658 -15.7867889  31.7932758   2.0242815
  -1.3727180  12.4692020 -40.3592720  -1.2959477  13.4636202 -40.3494148
  -0.7154502  12.3386278 -39.5506439  21.2705574   2.9037011 -19.8954926
  20.3265839   2.9287307 -19.7119293  21.5810242   2.2488148 -19.2709217
  37.1852760 -17.0369740  30.8229942  36.2440033 -16.8980026  31.0098724
  37.3159180 -16.7063847  29.9344177  34.1849823  15.5651035  -6.6347122
  33.9962654  14.6746979  -6.9578786  34.4485207  15.3956528  -5.7154112
   8.9495125 -15.4702425 -32.8591690   8.0717297 -15.0846624 -32.8601456
   8.8848763 -16.2738037 -33.3839188  16.9325409  -1.1445295  19.9098206
  16.3889885  -1.6833216  19.2814159  17.5358925  -0.6227631  19.2936802
  18.5222683 -28.3751106 -20.7722015  17.5900459 -28.6934719 -20.8756981
  18.2988110 -27.5768776 -20.2207851  14.7453318  -9.8095417  -3.6857414
  15.2506456 -10.1887960  -3.0029466  14.0232000 -10.3513203  -3.7866018
  13.7506323  -0.0663120  35.6389427  13.6806755  -0.9888468  35.3610992
  14.6834497   0.1304257  35.3294983  -1.2461939  17.3916016  13.2884130
  -1.6084449  18.2618046  13.6201982  -1.2576965  17.5957298  12.3436470
   5.9366474  25.7208099  17.9292850   6.3830032  26.4672184  18.3743782
   5.8558598  25.1252422  18.7129345  -9.2942410  29.2561359 -31.8967953
  -8.8540373  29.3991280 -31.0762615  -9.2269030  28.2642498 -32.0004730
   3.9141333 -12.3746662 -31.4285450   4.8855352 -12.5370092 -31.6086655
   3.7450359 -11.8946276 -32.3074799  -3.9480512  10.2592258 -23.3509350
  -2.9805672  10.2453814 -23.1146049  -4.1286817  11.2193661 -23.2726936
 -17.9783268 -42.2435455 -11.3632584 -18.1842842 -42.2131996 -10.4205179
 -17.2834377 -41.5295715 -11.3730993  35.4077911  -4.4562793 -23.8311043
  35.4017258  -5.3274045 -24.2296371  36.3515739  -4.4051123 -23.5049953
  29.3038731  -6.1665764 -27.6949081  30.0383739  -6.3962560 -27.1534748
  29.7421627  -5.3716292 -28.1461334 -13.2264042 -27.5021229  20.6454926
 -13.5285740 -27.0137157  19.9276142 -13.2123766 -28.4010868  20.2794037
  35.7222099   2.0316441 -19.9591084  35.6408920   2.4971678 -19.0628681
  35.4012337   2.7432663 -20.5286350 -12.7529907 -16.8475685  10.6690273
 -13.2208662 -16.7867985  11.5098228 -13.4505091 -16.3472595  10.1142387
 -21.0988541   3.6975358 -32.0655899 -21.2929821   4.6051188 -32.1269951
 -20.2098331   3.5043449 -32.4082947 -30.6184006   7.5994530  13.3659868
 -31.2776890   8.3083353  13.5775251 -30.9351273   6.9795814  14.0647707
 -14.7630453 -38.4569473   6.4897251 -14.2158813 -37.6263275   6.5669060
 -14.5569839 -38.5789032   5.4998364  14.0222816  43.7096596 -17.1492424
  14.0991001  44.6726952 -17.4208984  14.9142227  43.4735680 -16.9339314
  33.4167442  26.4249096   9.9842587  33.6058502  27.3408871   9.9960337
  34.1041222  26.1056080   9.3325434 -13.1566801  19.8587151   1.8802949
 -13.9903746  19.5032425   2.1297522 -13.1581812  20.7157555   2.2678916
   4.6416593  -6.7740703  14.7281437   4.0290504  -6.4596062  15.4301424
   4.9430265  -6.0139089  14.2563601 -27.2595634   2.5703137 -42.9845505
 -27.8459759   1.9000443 -42.6356926 -27.6313553   3.3605020 -42.5271301
 -31.8868580  -0.4064982  13.7706833 -32.7872124  -0.5790023  14.1096916
 -31.6745510  -1.2063951  13.3127069 -13.8499813  -7.7173872  43.3837814
 -14.8098698  -7.7422638  43.1517067 -13.8567715  -8.1628399  44.2487335
  17.0368824 -27.9746723   6.6339965  16.5083122 -28.3802166   7.3629479
  17.3651180 -28.8051281   6.1854801  18.2252884 -22.9893379 -13.2242641
  17.9553108 -22.8334637 -12.3126183  17.7348976 -23.7591515 -13.4958992
 -17.0363998 -12.5357656   8.8877192 -16.6400261 -12.2219820   9.7367945
 -17.8285542 -12.9578848   9.2278090 -31.2323132  13.6554680   9.2074490
 -30.3321018  13.4414377   9.5949392 -31.0331669  14.5195827   8.9208508
   5.2194700 -36.2578354 -18.3048801   5.6032538 -36.1784935 -17.3908215
   4.3167582 -35.9712296 -18.1642857  -5.4334879  -0.5325364 -21.8725758
  -5.9647274  -1.1014810 -21.2556534  -5.4320154   0.2953754 -21.3573589
   3.3813939  -5.2282572 -19.0416794   2.9653440  -6.0197792 -19.2337093
   3.2943964  -4.7462950 -19.8886528 -11.7697859  34.3823891  10.6631117
 -11.8501863  35.3012772  10.2484798 -11.5017796  34.6340103  11.6098938
 -22.1320953 -32.2243500   6.3359571 -21.6171284 -32.4324341   5.5658808
 -22.3824482 -31.3159046   6.2251568 -31.1945724 -32.4192581 -15.3176260
 -30.8403454 -33.2985458 -15.0687847 -30.3458900 -31.8825932 -15.3988934
 -36.6749153 -10.3090897   6.2725072 -36.5226593 -10.8857956   5.5092535
 -37.4916267 -10.6808176   6.6548610 -10.0904083  30.2800179  -2.4372663
  -9.2439251  30.4730968  -2.0337360 -10.0521431  30.7303486  -3.2774208
  27.9264088 -12.0358477  31.0058327  28.2572517 -12.7347660  31.6563053
  28.0183182 -11.2461529  31.6384354 -40.9271660 -15.6808691 -27.8426208
 -40.3121567 -16.1770725 -27.3503056 -40.6263313 -15.8089705 -28.7288551
   3.9804463  -4.2521420  -7.3362131   3.6541772  -3.5999496  -7.9951425
   3.1020005  -4.4145880  -6.8196530   1.8809184  29.0510616   2.5915220
   1.9504033  28.0654068   2.8178027   0.9538665  29.1008320   2.4519107
  16.2887115 -29.9676228  18.7061729  17.0677681 -29.6419125  18.1647949
  16.7262592 -29.8537941  19.6031933 -11.2818556  30.1432266   2.9117019
 -11.4220724  29.6851807   1.9826442 -12.0588589  29.6151772   3.3464622
  41.4983940  15.7064562  20.1430016  40.6069870  15.3450470  19.8693027
  41.3524933  16.6843452  19.8862114 -23.2005520  16.2861195 -41.3240967
 -24.0047855  16.6444569 -41.6097488 -23.4640656  15.3942137 -41.1024208
  27.2527657   2.7838626 -17.5653229  28.0485020   2.9869752 -17.0296154
  27.6154327   1.9864444 -18.0410519  -4.3079238  24.7220688 -30.8092632
  -5.2545037  24.4715996 -30.9984417  -3.8729484  24.1759396 -31.5059853
  25.0267296  14.6415215   8.1279144  26.0220356  14.6163654   8.3260260
  24.7675018  13.8911762   8.7027941  -1.8319825 -12.0046949  -1.8782012
  -1.8239493 -11.1754065  -1.3790405  -2.6238410 -12.4078436  -1.3809994
 -22.5259857  12.6829538 -15.0494566 -23.2811565  13.3436823 -14.9275208
 -21.8067436  13.2333202 -14.6170378  27.8270741   7.1339269  14.1139774
  27.9437084   6.7951584  13.2098837  27.0927963   6.4936247  14.4094286
   7.3228569   6.3945713 -43.7281036   7.5992804   7.2745590 -43.9901314
   7.8239927   5.8558416 -44.4355087   9.3128471  20.3289700 -15.9443750
   9.9482193  20.0920658 -15.2404280   9.9229736  20.5198193 -16.6738529
 -22.6678734  32.5539284  29.5230808 -23.5841923  32.2050972  29.5674553
 -22.2265396  31.6794510  29.3560123 -42.2277451  -5.5427823  28.2852211
 -42.5671082  -5.9721231  27.5166016 -41.2523155  -5.7833452  28.2021980
  -6.8479376 -46.4468384  15.3831263  -7.1253295 -47.0508957  16.1142426
  -7.7060456 -46.1613541  15.0681992  43.6778755  14.0404425 -16.4804554
  43.8074036  14.7445736 -17.1432552  42.7545738  14.2301998 -16.1853428
 -36.1181793   6.4847546  -8.0166597 -37.0607109   6.7095156  -8.1457920
 -36.1835594   5.5452180  -7.8343534 -42.6324692 -10.4971447 -27.4837341
 -42.7491531  -9.5482235 -27.6650581 -41.7933464 -10.6006098 -27.9949799
 -29.7153015 -17.5470371 -15.3647861 -29.4168625 -17.6256275 -14.4015160
 -28.9115925 -17.1811905 -15.7264948  -6.1555061  12.0779963 -42.4312096
  -5.5532098  11.5810966 -41.8380051  -5.9088464  13.0040092 -42.2223244
  -8.2416334  -0.0943481 -10.3854513  -7.5240293  -0.7102029 -10.0851707
  -8.3130217  -0.3919745 -11.3151894  31.0313358  10.0969448  20.6692905
  31.3934765   9.2253885  20.9674320  31.7491436  10.7111826  20.9671249
  11.0843487 -30.0108299  31.5471077  10.6378603 -29.9492893  32.4374580
  11.4702892 -30.9223022  31.6219330  17.3915634 -15.6933022 -45.2387352
  17.0200863 -15.0288315 -44.5828018  17.8555603 -16.2652721 -44.6907959
  12.5799561  -8.5666094 -33.9823837  12.9961071  -9.1930475 -33.3457489
  13.2101822  -8.6477985 -34.7181969  11.9627285  30.5285835  -5.6605954
  12.9434099  30.7475643  -5.8219175  11.6503506  31.0526524  -6.4368210
  37.1515617  15.1328716 -20.9109268  37.3445663  15.8072367 -21.5772686
  36.2235794  15.0069704 -20.9640789  13.1037388 -37.1606865  -5.3121991
  13.8393183 -36.7717476  -5.8076391  13.5165653 -37.9999199  -5.0042105
 -34.9677048  19.5127697   7.7962947 -35.4363136  20.3567467   7.3715587
 -34.5364189  19.2380142   6.9510455  -5.9181795  18.1863823 -16.2904358
  -5.3530202  17.5355072 -16.7356548  -6.0274253  18.7422047 -17.1342583
  -6.6619520 -48.0824966  -1.8665866  -7.5530081 -48.2619972  -2.1668873
  -6.7862859 -47.2229309  -1.3608119 -19.3153191 -20.6227512  10.5235777
 -19.8543453 -21.3341331  10.9752150 -19.7533569 -19.8392830  10.9967642
 -21.2529488  -4.3709555  10.1136618 -21.6892262  -3.5828164  10.4682121
 -20.4563885  -4.4490347  10.5958872  -9.1379986 -21.0402946 -26.5374775
  -9.9791155 -21.3928261 -26.2120380  -8.8255892 -20.4522858 -25.8880596
  36.5347748  -8.3239603  10.8288622  36.8722229  -8.4330826   9.9338112
  35.7470245  -8.8945618  10.8572874  31.9731216  38.0099335   7.9040327
  32.5395660  37.8682861   8.6364565  31.9830723  38.9797745   7.8015766
  25.1038170 -35.8379669   3.1680560  25.6119728 -36.4257851   2.5939057
  24.9936237 -35.0463982   2.5266709  19.4637756 -14.3040714  -4.8712854
  20.2915192 -14.1804867  -4.2909145  19.0623226 -13.4298639  -4.6631041
  10.9629917   6.3157358 -26.8057480  10.0525389   6.3477154 -26.5115814
  11.4914064   6.6401587 -26.0533409 -14.5557537  36.8572388  16.1298523
 -15.3545542  37.3722839  15.8267574 -14.8093958  36.7205429  17.0438995
 -10.4675751  13.3665190  12.2025585 -10.8828669  14.1409369  12.6645164
  -9.5452366  13.6195011  12.0158482  -7.2795887 -40.1903114 -15.8366957
  -7.2533245 -40.4930763 -16.7873802  -8.0233994 -39.6257935 -15.8618841
  10.4714327  48.5946426 -14.5460129   9.8427572  49.0321121 -15.1428061
   9.9442873  48.5137138 -13.7395573   1.7604167   6.4115367   7.7484722
   1.1196903   6.0541401   7.1000409   2.3100364   7.0565033   7.1725640
  17.8703423   3.1833789   9.5316582  18.7153320   3.5959270   9.1905890
  18.2496109   2.7002766  10.3047180   3.2535009 -25.6542912   5.1679206
   3.4077661 -25.5701160   6.1706557   2.3297412 -25.3221169   5.1163020
  -1.5345819  14.2707176  11.5915194  -1.1250571  13.4599953  11.5123835
  -1.0357866  14.8948307  12.0687866  18.7491875  36.4440002  -4.7551575
  19.2264919  36.9073944  -5.5116587  17.8635845  36.8609581  -4.7885256
   9.0713511 -35.8634834  25.1129665  10.0071592 -36.2449608  24.9768257
   8.9097872 -35.5294609  24.1678753  34.7033577 -10.7006855   0.0770604
  34.1106339  -9.9396439   0.3484944  34.7605972 -11.0660152   0.9853214
  20.0112839 -13.7398663  41.2638779  19.0505371 -13.5300245  40.9342346
  20.0203838 -13.0530834  42.0123329   0.7690796   5.8311000  -7.2845168
   0.6125071   5.0885100  -7.9522934   0.2307544   5.3698072  -6.5400357
 -30.5194473 -22.3327160  18.4137192 -30.7390919 -22.7199230  19.3119926
 -30.1487999 -23.1025429  18.0022373   3.7938955 -10.4250774 -27.7513351
   3.1034634 -10.1668158 -28.3949165   4.4143262  -9.7199678 -27.9380627
 -15.7193336 -38.5594482 -22.9318161 -14.7339535 -38.7424965 -23.0645065
 -16.0686245 -39.5105400 -23.0304298  29.3357048   5.4558706   4.9602098
  29.0028725   6.3469639   4.6913018  29.1769066   5.5660543   5.9158015
  30.4040604  32.7221527   4.8332338  30.4914780  32.8744087   3.8526452
  31.2844505  32.4781113   5.0600181  40.7216721 -28.2548466  -0.0443338
  41.3992996 -28.8847904  -0.3302864  41.1669998 -27.8228054   0.7421556
 -19.2377586   5.6433134  34.3402863 -19.2523975   4.8719172  35.0150375
 -18.2954330   5.7564940  34.2719917  43.2443771  -8.8735085  -8.1118307
  42.9018669  -9.2170830  -9.0065708  44.1227303  -9.2034101  -8.2463799
   3.2083678   7.7240458  29.6809921   2.5355458   7.0920749  29.3399906
   4.0042396   7.2035770  29.4988441 -30.3158569 -27.1006985 -14.5293560
 -30.2721176 -27.4092960 -15.4987364 -30.4431000 -26.1852455 -14.6510277
  -8.9124708 -17.8998642  37.5244598  -9.5445004 -17.0491142  37.5284691
  -9.5210190 -18.3751087  36.9671822 -42.8417931  14.4958725  -9.6293612
 -42.0167465  14.6936607  -9.0990658 -43.0893593  15.4472733  -9.8193913
  29.2479782 -10.0698080   6.5010128  29.0110188 -10.9473333   6.1273613
  28.5890884  -9.4464960   6.0726557  33.5854912 -14.7190580  12.4221735
  33.4694366 -15.6601315  12.4248857  33.8820610 -14.6070700  13.3888187
   7.3203788  22.3080788  -7.7868438   7.0896969  21.6034832  -7.0879869
   7.8266749  21.7639771  -8.3857794  -9.2660265 -24.6155281  13.1035557
  -9.4085264 -25.5929546  13.2061214  -9.2779789 -24.5359554  12.1480246
 -39.7616692 -18.5561733  19.2011089 -39.0527763 -18.9119148  19.7668972
 -39.2250748 -18.0456409  18.5280437   3.7818558  -1.6399139  36.3949394
   4.0391679  -0.6821020  36.3589325   4.6640787  -2.0578427  36.3534012
 -34.7402573   1.2715136  38.1769066 -35.2722321   1.2453443  39.0098724
 -34.8861008   0.3431716  37.9072113 -38.8587456  30.8324604  12.2307005
 -38.3556786  30.5681591  13.0174255 -38.1251564  30.9293499  11.5559740
  17.7355499 -10.6550608  -1.9595134  18.3401451 -11.1230135  -1.3089607
  16.8728275 -10.7848768  -1.4882483 -23.1793251  16.0819111  -4.1954813
 -23.0626183  17.0335484  -4.5006633 -23.0791740  15.6352596  -5.1042910
 -29.2290192  26.0749378  10.8520670 -28.5952187  26.7448635  11.1588106
 -29.5283909  25.7301369  11.7459517 -35.9956093   5.0167890  20.2116547
 -35.2604790   4.9928660  19.6009274 -35.7537155   4.2369461  20.8164368
   8.2246895   0.9944451 -20.1696796   7.7129493   1.2744619 -20.9632072
   8.3680391   1.9625314 -19.8148422 -39.3792915  15.3240213  12.4786625
 -40.1004982  15.7387495  12.0013123 -39.4323387  15.7456036  13.3682442
  24.4875755  13.6493931   5.5796514  25.3215046  13.6539564   5.1050987
  24.7512646  14.0456867   6.4302778 -36.5040855 -26.0714855  -7.5020967
 -37.4043808 -26.0945663  -7.1100812 -36.4481468 -27.0774498  -7.6072278
  30.6351166  13.3047075  -0.8853906  29.6863041  13.5025883  -0.5202377
  30.9811001  14.1963034  -0.8396103  19.2651749  19.9514484 -33.0076103
  19.1875343  19.1378746 -33.6105957  20.2436371  20.1227131 -33.1368980
   2.6324964  18.7453251  10.3810539   3.2606349  19.1176548  11.0110073
   2.2805421  18.0346622  10.9401598   9.4096985  23.9280434  23.1589851
   9.7252254  24.8088512  23.4645958   8.7462158  23.7502766  23.8932209
  10.1983910  -3.5795150  33.4406738  10.4102411  -3.8286219  32.5502319
  11.1543550  -3.4790740  33.8056107 -36.1794090 -31.2692127 -12.8634472
 -36.2349434 -30.6163521 -13.5949678 -35.8334732 -30.7650261 -12.1251030
  -9.2252169   5.1927843   0.9957129  -8.8921165   5.1127634   0.0550918
  -9.8393383   5.9754467   0.9138536 -26.3571491  30.7083588  32.3967209
 -26.5998859  30.4965343  31.4520111 -25.4068642  30.4266281  32.3543587
 -30.4161091  24.7901134  31.6292896 -30.6955910  25.3529320  30.8996525
 -31.3191147  24.4446621  31.9351597  42.0755997 -24.3268890 -13.2454529
  42.6808548 -23.5461426 -12.9779358  42.6824226 -24.7642250 -13.8612671
  43.9625206  -1.6651527   8.3051729  43.9010887  -2.5240462   8.7613411
  44.5611000  -1.2227612   8.9735870  -2.7187750   4.6914487  45.3550453
  -2.7307956   4.1271648  46.0915794  -2.8434553   5.5740767  45.7788925
  11.3576193 -43.0255127 -20.7175846  10.9437914 -42.2114868 -21.2492523
  10.8757076 -42.8542480 -19.8393536  40.4442825  18.3831367 -17.8495197
  39.4887581  18.1595650 -18.0161724  40.8509483  17.6071911 -18.3107243
  35.9846230 -10.8380737  -5.2165442  36.7576485 -10.4150972  -5.6771483
  35.5873528 -10.1135712  -4.6520376 -19.7638779  30.7571964  -7.5246587
 -20.4559002  30.5651665  -8.2243633 -19.9340515  31.7643223  -7.5623417
  11.1566925  18.7174778 -14.7041616  11.1674881  18.0257587 -15.3736210
  12.0176868  18.5770226 -14.2569885 -27.7661743  -4.8303542  -2.4910429
 -27.6987343  -5.4187551  -3.2526789 -28.5489120  -4.3170962  -2.6041901
  18.9710617  -4.5482111   4.7896099  17.9724121  -4.4510884   4.6731672
  19.1501312  -5.1199298   3.9689403  -7.0827150  15.3677330  35.8823624
  -7.2849150  14.8329248  36.6740150  -6.9808373  16.2323513  36.3005371
  -1.6962522  31.3641186 -27.7235279  -2.0005763  30.6107311 -28.2819042
  -2.5878272  31.7338676 -27.5286179   9.3120232  45.6903687  -8.1050625
   9.0724049  46.4686317  -7.5417719   9.8488321  45.1299744  -7.4667192
 -38.7023430   7.7025847   5.5064845 -38.5653496   8.6517019   5.3816752
 -39.2006035   7.6897931   6.3264956 -20.6492710  -7.0151534  30.1690636
 -21.6223049  -6.9986920  30.5205593 -20.5948696  -7.9941196  29.9731770
  32.2178421 -20.9648628  31.8545246  31.8309631 -21.1056175  30.9376411
  31.6675568 -21.6510582  32.3185692   3.5152357  33.0051193  28.8995647
   3.5373094  33.0177841  29.8674374   2.5727890  33.0928307  28.6933804
 -30.1240768 -36.4637070  -8.4339781 -29.3140411 -36.2379379  -8.9777842
 -30.7774448 -35.7474060  -8.6336737  11.6655760 -30.2045116   2.9010780
  11.5296164 -30.4629555   3.8633075  12.1604843 -30.9665813   2.5419264
   6.3270426 -12.8386774 -12.7778053   7.2682099 -12.8254538 -12.9837255
   5.8877687 -12.5950689 -13.5886145 -23.7036266 -34.3313522   6.9958262
 -23.0358849 -33.6322250   6.8763785 -24.2068024 -34.2763329   6.1698289
  22.6704674 -14.0228605  41.7414360  21.7260075 -14.1953135  41.5371971
  22.9102364 -14.9301462  42.1635780  16.6043663 -27.6406250 -36.1012802
  17.4991379 -27.2690353 -36.0441055  16.0087204 -26.9077015 -36.1834564
   9.2534161  24.4403801 -34.1881218   9.0648041  23.6734200 -33.5703163
  10.1516151  24.1897812 -34.4956284  40.4118958   1.2268248 -13.8127251
  39.7951126   1.4944767 -13.1137619  41.2829208   1.5467498 -13.4555330
   2.1121721 -29.1651421  20.4198055   2.6761010 -29.8771973  20.8881588
   1.2211099 -29.6225986  20.5401192  30.4889946   9.1415234   1.5799420
  30.9557686   9.6757450   2.2793975  30.4722157   8.2482815   1.9795699
  24.1510620 -16.4989815  12.6164885  24.3325291 -15.5049267  12.5048342
  23.2946644 -16.4916668  12.1295404  13.0365410 -33.8494110   9.6253099
  13.7482910 -33.9876213  10.3266439  12.7400122 -34.7993355   9.6362076
  39.0982399 -30.3249664  11.5646954  39.1518593 -30.0302105  10.6952839
  38.6037331 -29.6497154  12.0641680 -17.7104034  21.0616627  40.7865181
 -16.9848690  20.6454544  40.2648888 -18.1665249  20.2401085  41.1468964
   7.5748024  -5.5195889 -44.9790726   7.3082824  -5.7146144 -45.8852234
   7.4034739  -4.5833297 -44.9077797  -7.5493655   6.7977862 -11.0674362
  -8.4589920   7.0743518 -10.7281342  -7.0026798   7.0047898 -10.2796869
   9.7987719 -25.6035347 -36.7482529   9.0074110 -26.1524620 -37.0905647
   9.9550390 -26.2232227 -35.9523354  30.9489155  40.1119347 -18.7232399
  31.0077362  39.1523743 -18.9942570  31.4309216  39.9849548 -17.8506432
  18.3750439 -24.1427269  -3.0616257  18.6034813 -24.9649563  -3.5526967
  17.7640591 -23.7743988  -3.7354379  19.2410297 -23.2654114  40.3611755
  20.2027378 -23.3278370  40.4320755  19.0268002 -24.2126789  40.3356705
  18.9941692  33.8426094  -6.9274340  18.4833031  33.6454811  -6.0692201
  19.8849888  33.5617485  -6.6539140   3.8904915   5.4341755  22.9643936
   4.2511773   5.0773869  22.1229248   4.4485569   5.1520929  23.6599350
  -3.2225025 -17.0244274 -22.0874519  -2.8182769 -16.1926537 -22.4744320
  -3.9367857 -17.1320477 -22.7563152 -33.4349327   1.3731732   0.1902357
 -32.4673462   1.2111566  -0.0605702 -33.4704781   2.3510895  -0.1419365
   4.4762316 -43.6170807 -17.8841667   5.2008257 -44.1795464 -17.5640163
   4.6944113 -43.4666023 -18.8178692 -10.7249241  31.4394493 -31.3254280
 -10.2961454  30.5409431 -31.5176239 -11.6776390  31.1429386 -31.4059258
 -43.6533356  17.0759239  11.2386150 -43.1406097  17.3276844  10.4706078
 -44.4936790  17.6142769  11.1156912  -7.3257761  -5.1982803 -42.5011177
  -6.6246815  -5.7557364 -42.1389160  -7.5339341  -5.7747531 -43.3013535
  17.5539455 -32.1160088 -14.6695023  17.4098034 -32.6089516 -13.8469572
  18.3747120 -31.6207066 -14.4692259  19.0928917 -19.7723331  24.7216110
  20.0026245 -19.9223900  24.8733463  18.9420967 -19.0308475  25.3164673
 -28.6624184 -26.5169353 -21.7090683 -28.5066338 -25.5459404 -21.4378338
 -29.1337547 -26.3184319 -22.5469303 -15.2280798  32.1704102  25.7001057
 -15.7310419  32.7883759  26.2313595 -15.8176508  31.3574371  25.8174629
  -8.2074203 -48.2907524  17.1059246  -9.1273298 -48.2177925  17.4895287
  -7.7162366 -48.6382828  17.8539486 -18.1380863   5.8646827  37.2398453
 -18.1592331   5.2023425  37.9562073 -17.7818527   5.3279476  36.4899178
  -3.0155835 -21.0932598  29.5130653  -3.2966406 -22.0035229  29.1686363
  -2.9347379 -21.3143272  30.4603901 -26.1042995 -31.4950962 -22.2770653
 -26.6113777 -31.6756535 -23.1199818 -26.0917301 -30.5405388 -22.3001099
 -30.1389961   0.7103142   3.5454953 -30.1360893   1.1570094   4.4140353
 -31.0913048   0.4681484   3.4855149  16.3370800 -30.5176010  -0.0419454
  16.5178566 -31.3799629  -0.4622066  15.4388437 -30.3389797  -0.3198731
  10.4844618 -15.7866011   1.6400778  10.4067097 -16.2822762   2.4769688
  10.6796675 -16.5514221   1.0653054  40.7650032  -4.2753916  24.2567101
  39.8850136  -3.9056768  24.4053230  41.3304214  -3.5994706  24.5762596
 -11.8693113  23.1964092  35.2707291 -12.1888781  24.1100998  35.4539871
 -11.6969156  23.1781693  34.3276443 -35.4555321  -6.5263176  29.5358200
 -35.8692703  -6.7864113  30.3610249 -34.5163269  -6.3761678  29.8520203
  -8.6624842 -28.0777092 -34.3211746  -8.2370043 -28.6067352 -33.5977287
  -7.7689734 -27.8277931 -34.7219963  -8.1566544  -3.8707530  37.9323616
  -8.6091661  -4.1682506  38.7283287  -7.3307495  -3.4581666  38.2365875
  26.1634312 -14.8118896 -39.2772713  26.6499195 -15.5519562 -38.7246056
  26.9261951 -14.2451258 -39.3310623  11.8637009  46.9147034   3.2931874
  11.3243523  47.5795326   2.8188386  12.4847202  46.6503029   2.5745606
 -31.3417816   2.8965797 -39.6341209 -30.7934246   2.2002978 -40.0681190
 -31.8488178   2.3150082 -39.0108070  40.0217743  21.4866409 -14.5215788
  39.5852509  20.6376114 -14.7292576  39.9976387  21.4707108 -13.5126295
  26.4486256 -22.7853184  36.8319855  26.0296574 -22.2578220  37.5715675
  27.0206566 -22.1084843  36.4277000  14.7877302 -35.2712059  -6.0353432
  15.1834459 -34.7349701  -6.7288227  13.8039980 -35.1326027  -6.1994152
  -4.2724628   6.4768472  41.9157410  -4.3026567   7.2316337  42.5535011
  -3.3209779   6.2439499  42.0463638   7.0036745  15.7619352  33.3156433
   7.4267893  15.7074175  32.4151802   6.2017264  15.2582836  33.0803413
 -19.1238308   3.9129369  31.6098404 -19.4762325   4.8103161  31.6310024
 -18.3491669   4.0175118  32.1655884 -34.8517036 -16.5671196  11.1542330
 -34.7008095 -15.8793316  10.5268211 -35.7821846 -16.7349949  11.1073589
   1.3391695 -15.7504282 -12.8945522   1.4295799 -15.8918848 -11.9335575
   0.5869495 -15.1021042 -12.8241920 -41.5011864 -20.5986290  20.2641106
 -42.1124611 -20.0039062  20.7629089 -40.8499908 -19.9313889  19.9053898
  11.5821304  36.7436981  11.8595695  10.7528305  36.3615875  11.4927616
  12.1459818  35.9641876  11.8267269   5.3328753 -21.7170868 -29.0652161
   4.4370327 -21.4883537 -29.4957218   5.6013579 -20.7648525 -28.9215736
  -6.4765234 -17.5663376 -37.3467293  -5.6314039 -18.1232109 -37.3467064
  -6.0498767 -16.7047997 -37.0467072  11.1957664 -10.9118795 -39.6181908
  11.2252121 -10.0760584 -39.0890694  12.1421127 -11.0417337 -39.8086357
 -15.5594120 -38.0296211  20.7728195 -15.5631428 -37.1088066  20.5547314
 -14.6272268 -38.1844864  20.9872627  30.4678364  -8.2057810  -6.7395082
  30.3595486  -8.5870867  -7.6088386  29.8878593  -7.3964052  -6.6707454
  13.1520176 -24.4593391 -20.1604729  13.7711649 -25.0656757 -20.7007961
  13.0463753 -24.9268875 -19.3140068  15.3457937   8.5298233  -5.7470889
  15.9985065   9.0366650  -5.2048044  14.5068064   8.8708038  -5.3963399
 -22.8399582  15.6537714   3.3960540 -22.4913349  16.5614529   3.3246577
 -23.0517540  15.4731083   2.4615829 -22.2783737  -0.7511772 -39.6717949
 -22.8258514  -1.4935368 -40.0428581 -22.7878551  -0.6403637 -38.8013725
 -41.2559128 -18.8675995 -24.9428749 -41.1454086 -19.3107052 -25.8095551
 -42.1654282 -19.0106316 -24.7435474   7.6697574  14.2692251  21.9580936
   8.4833355  14.3808575  22.5399132   7.6601734  13.2445784  21.9001713
 -10.6906157  -7.5017729 -44.5927963 -10.4583111  -6.7168727 -45.0840187
 -11.6475096  -7.5579720 -44.7820244 -30.2856197  10.2910118  20.6703720
 -29.5932293  10.6400223  19.9893169 -30.4174957  11.1032953  21.1760006
  18.3348408  42.3136444  18.5476494  18.0199833  43.1065674  18.0724373
  19.2907562  42.5143051  18.6131992 -23.0316238   6.0321741  25.9089794
 -23.6455288   6.3372865  25.2069969 -23.4075375   5.1948328  26.1597328
 -42.7031326 -18.7892208  22.4335346 -42.5842209 -19.3951454  23.1516361
 -43.7017479 -18.6808815  22.4738960  29.0891342  13.5614586  32.1072922
  28.3481464  13.5562239  32.7683601  29.8376846  13.6658010  32.7623291
 -32.2788277  16.4997940   7.4006147 -32.7239037  17.1548443   6.7472887
 -32.0541649  15.8225784   6.7250834 -18.4066715 -36.6873131 -21.9078350
 -17.4803257 -36.3631859 -22.1240387 -18.8493271 -35.8419685 -22.2028675
 -21.5060406 -41.3722382   2.7580509 -21.6764202 -41.0174026   3.6460755
 -22.4394970 -41.5930901   2.5650818   0.9646137  17.3133717  21.5344601
   1.3465612  16.5812855  22.0492287   0.9415604  16.9756832  20.6416264
 -32.7180862  25.0779877   6.8615146 -33.4563141  24.7149887   7.2982254
 -31.9910507  25.0149460   7.5177975  39.8553696   0.3957160 -21.6992054
  39.9354477   0.2248075 -20.7738285  38.9617767   0.8493393 -21.7702446
 -37.7186890 -28.3752670  -0.5142027 -36.9896507 -28.0480709  -1.0783294
 -37.6396141 -29.3571873  -0.7853943  31.2197342  -2.6100392  19.6387863
  31.4650040  -3.4869552  20.0569191  31.1805096  -2.9567764  18.6526089
 -14.2628698   1.1880217   4.1959772 -13.2717848   1.3055651   4.2344308
 -14.3087626   0.7948446   3.2971036  31.0883026 -14.9944029 -28.3530025
  32.0140381 -14.9924469 -28.0830441  30.7796917 -15.7002687 -27.7401943
 -28.0874443  -9.8547668  32.6065292 -27.9837437  -8.9015656  32.5228882
 -27.5498199  -9.9825211  33.4608192 -34.2042618  18.6101971 -12.8217888
 -35.0593948  18.5032005 -13.2792044 -34.5254860  19.0859852 -12.0132141
 -11.8977957 -24.6068211  26.9505939 -12.0002775 -25.6033783  27.0305958
 -12.7324409 -24.3470573  27.4406490  20.0824604  26.2874718 -28.6442471
  20.0240688  26.9544983 -29.3319092  21.0148888  26.0254059 -28.7008343
  -0.8148523 -20.1120090  36.7252731  -0.4524052 -20.8964520  36.2812080
  -1.7200959 -20.4233589  36.9480896  36.7972984  29.5995884  16.0435448
  37.2234650  30.4692745  16.0783443  36.1153488  29.6118336  15.4086847
  15.3343287  48.9527245 -14.3271332  15.3325348  48.1865654 -13.6242409
  14.3797159  49.2610016 -14.1314411  36.1331253   4.1767554  22.7422562
  36.1732330   3.2798357  22.4344540  35.7645302   4.6276383  21.9550667
 -17.8683414 -28.4618034 -13.7706585 -18.0933208 -27.8796902 -13.0272169
 -18.6321354 -28.2354774 -14.3807125   3.5763025  25.7283192 -14.8882351
   3.7915971  25.6847630 -13.9079065   4.0060973  26.5681381 -15.0986300
   1.1785794  26.4845543  -3.6524127   0.7217109  25.9910622  -4.3109837
   0.5649879  26.7066574  -2.9563868   5.4880514 -10.6425705  12.4761829
   5.5195775  -9.8392115  11.9099264   4.5183048 -10.6764669  12.6407051
 -20.4605598   9.4086027 -38.3948669 -19.8383617   9.4373159 -37.7011452
 -19.8841553   9.5931959 -39.1480789  17.0490685 -22.4491062 -16.9698124
  16.6751480 -21.6997738 -17.5374165  17.1783905 -23.1090984 -17.7141228
  17.1599503   6.0649805   9.0916252  17.7546616   5.2987680   9.2338552
  17.5729485   6.5352297   8.3554220  28.7993107 -14.2553310  32.2902260
  29.7092648 -14.1946182  32.5447655  28.7322922 -15.2107954  32.0479431
  -0.1022175  17.3382168 -33.0775795  -0.0122887  17.7994556 -32.2553749
  -0.1392184  16.4333496 -32.7783127  37.6265678  -4.0971475  22.2199688
  37.5612373  -3.7987440  23.1844158  38.1317329  -3.2877851  21.9071999
 -40.4879265  -0.8790876  23.0530872 -39.8984108  -0.3512212  23.6644344
 -40.6966782  -0.1798351  22.3986187  -3.2089460 -15.5831795  20.2658119
  -3.3383505 -15.4963017  19.3137608  -2.2444513 -15.6133652  20.3536854
  -4.5318317  29.9926357 -18.7527256  -5.2831941  29.9386978 -18.1746292
  -4.2007370  30.9210148 -18.6284637 -21.7629337 -25.2783031 -13.0918541
 -21.0288830 -25.1445007 -12.4140320 -22.2626228 -25.9787560 -12.5529766
 -30.0755730  10.6658258  41.7908173 -29.3144474  10.4127808  41.2017937
 -30.7148476  11.0273046  41.1738396  36.1537399 -23.0346279  20.8639603
  36.4367867 -23.4067650  20.0695858  36.3113441 -22.0629883  20.7250633
 -22.9095249  28.8719788  20.0696888 -22.1123085  28.2895470  20.2573071
 -23.3442650  28.3698406  19.4155083 -16.7882290   4.6172762  35.1278229
 -16.3629189   3.8942769  35.6307106 -16.3622818   4.5372839  34.2501564
  27.4188862 -12.2005339  38.1498604  27.0671959 -11.8463469  37.3242073
  27.9883823 -11.4101257  38.3955269 -36.3688316 -26.2893734   0.9528051
 -36.8662033 -25.4601898   0.8237546 -36.9182434 -26.9002857   0.4659744
  -1.5732386 -23.6914501   5.3212714  -1.3023218 -23.1889763   6.1085730
  -1.7961655 -22.9660854   4.7150679  16.8526897 -39.3570671  27.8555355
  16.2012157 -39.2574234  27.1961212  16.7037277 -38.5302696  28.4411888
  19.8730755 -20.8091221  33.1320267  19.8287830 -20.8905811  34.0928497
  19.5151596 -19.9016113  33.0577469   4.5001812   7.7633457 -34.4878426
   4.0574384   7.2035699 -35.1366005   5.4255276   7.7778077 -34.8779335
 -16.8791828  -1.0005275   0.2985618 -16.9617481  -0.3751107   1.0355281
 -17.6839237  -0.8769752  -0.1759980   6.0782938 -29.0912056 -14.9020128
   5.9889088 -29.9916592 -14.5183220   5.2643480 -29.0835991 -15.4417963
 -28.0140095  31.3973083   8.6881113 -27.7723885  31.7701588   9.5517263
 -28.6813965  32.0999374   8.4435110 -43.8295593 -31.2731876  15.2369785
 -44.7285614 -31.5710354  15.2413712 -43.5663872 -31.5468807  16.1226120
   2.6630409 -46.0369148  11.5411863   3.1444321 -46.1271248  10.7431850
   1.8147280 -45.6417313  11.2866201 -13.0099192  25.6575680  34.9565086
 -13.8177185  26.2206459  34.9049759 -12.9169226  25.2586689  34.0809708
 -14.2620907 -23.6529617 -17.2067719 -14.8866062 -24.0081406 -17.8649406
 -14.4824486 -24.1624832 -16.3932171 -10.9717970  39.6567345   8.6185617
 -10.8704262  39.9746437   9.5436840 -10.3136673  38.8897591   8.7181463
  35.7426872 -18.5250092 -23.5898094  36.3486023 -19.1975632 -24.0304756
  35.6309433 -18.8917465 -22.7151489   3.8751187 -18.1594086 -19.3404655
   4.8858032 -18.0389709 -19.3245049   3.6265471 -17.3750210 -18.8008270
  10.9371481  14.8800716  29.2707062  10.8301458  15.1503773  28.4145832
  11.6591969  15.4619513  29.6083260  -7.2518282  33.6074944  28.5306149
  -7.1279411  32.6464729  28.3180237  -8.1800699  33.7004585  28.1088181
 -11.4905910  12.1314058  -5.2096686 -11.1420050  11.6708698  -4.4121022
 -11.4779043  11.4246387  -5.8660421  30.0999870 -31.5741119   1.6381086
  29.1972580 -31.6439152   1.9865198  29.9167328 -31.3640728   0.7056478
  -0.6224247   1.2483516 -10.8274965  -1.4461956   0.9619219 -10.2788582
  -0.1938642   0.3514801 -10.8340836  14.4758625 -17.4194889  -9.9168558
  15.0102501 -18.1765156 -10.2809744  13.7071533 -17.5815220 -10.4496441
  -7.5736485  22.1055298   0.0223610  -8.1117821  21.6863613   0.7346375
  -8.0343676  22.0046024  -0.7709427 -38.4350662   0.8055843   7.1960878
 -38.7270622  -0.1352970   7.1595163 -38.7903938   1.0720102   6.2759314
 -19.0979118  24.9643345   8.3958817 -19.1055126  24.4099216   7.5800085
 -18.5983009  25.7784576   8.0959845  21.0555058 -31.1904812  -0.6211111
  21.1763763 -31.6663055  -1.4916741  21.9908676 -30.8140717  -0.5651364
 -31.3251610  -1.2402061  -8.4076014 -32.2742729  -1.2081964  -8.7863178
 -31.3570461  -0.3283871  -8.0053501   1.7760388 -42.8064194   5.8750410
   2.4666874 -42.1728325   5.5192547   1.5023012 -43.1336098   4.9625235
   1.4009410  27.5693073 -16.2073097   0.8791544  27.8656788 -15.4575281
   1.9461012  28.4275799 -16.3934078  12.9556570  48.9053726   5.9726229
  12.3004713  49.2837029   6.5323067  13.0407734  48.0031319   6.2849698
 -25.6607208  28.5455532 -28.0146694 -25.4589424  27.8192387 -28.6489449
 -26.6328335  28.4058990 -27.8728600 -23.9570560 -21.5212688  19.1880493
 -23.4926605 -22.0619240  19.8690014 -23.4058056 -21.7669640  18.3883476
  13.7570858  42.2183533  20.8643894  13.5565224  41.5040703  21.4594231
  13.1711302  42.9392242  21.1499348 -40.8192215  12.4337378  -2.3647444
 -39.9078674  12.1266098  -2.2035861 -41.3184280  11.9198980  -1.7185439
  -5.0364490  -1.2122768  36.2422028  -4.8362870  -0.3782188  36.6457062
  -5.0794282  -0.9420993  35.3022842   2.7645934 -22.7984982 -39.2361031
   3.5764971 -22.9758263 -39.7670708   2.4343648 -21.9575405 -39.5849991
  38.6084518 -12.4898510  10.5489111  38.6673088 -11.7203465  11.1784124
  37.6187172 -12.5604296  10.3621969  -9.5779352  34.0551796  27.2372494
  -9.1943750  33.8149261  26.3426056 -10.3548908  34.5632362  26.9528198
 -14.0841484  36.3187790 -21.0427246 -14.7139502  35.8206596 -21.6646614
 -14.3336163  37.1908035 -21.3554401 -36.9586525 -27.1965256  17.1187820
 -36.3549004 -26.6127930  17.5935059 -37.2210045 -27.8592186  17.7337360
  -4.0430512  16.4133110  32.6906013  -3.5252619  17.1089134  32.2527618
  -4.9694233  16.5978889  32.3904533  10.7203407  22.0583267  -6.4189548
  10.9235182  21.1283245  -6.5508480   9.7042980  22.0280380  -6.5054650
  30.3332939 -12.6355143 -28.8378658  30.7498035 -12.1416769 -28.0449047
  30.7954788 -13.5240841 -28.6514835   5.6312137  -7.1355934 -50.0446281
   6.5227385  -7.5344367 -50.1490784   5.8585167  -6.1596479 -50.2228279
 -25.3581085  -0.4683387  26.2722645 -24.5689735  -1.0601860  26.0204678
 -24.8394947   0.3311730  26.4358521   4.6762028  11.3829031  -0.7051326
   3.7971106  11.1545992  -0.4705618   5.1221666  10.5676451  -0.9987200
 -31.6257343 -36.6800575   2.2889082 -32.5589828 -36.3511162   2.2909956
 -31.8340302 -37.6235352   1.9078376  -7.2386823  30.8105106   8.1513624
  -6.4592347  31.1593609   7.6188731  -7.9375424  31.3542557   7.7295399
 -27.6341019  -0.9737973  15.8444986 -28.3822079  -0.3730552  15.6158791
 -27.9678459  -1.1340669  16.7905598 -14.9283600  12.5092688 -43.5461884
 -14.6686535  13.4098005 -43.2763672 -14.1105251  12.0597229 -43.5500221
   2.8100877 -20.0415077  10.9862709   2.5392957 -19.4464436  10.2433929
   3.6361864 -19.6918392  11.2520351  14.9672375 -20.5517120  20.2919292
  14.2284622 -20.3871059  20.9232597  15.1364069 -19.6542778  19.9759865
 -27.8919277 -15.8823557  -5.3898277 -27.2767563 -15.1304626  -5.5207167
 -27.3039551 -16.6798897  -5.5384860  14.8256922  23.5178032  29.4629002
  14.9649334  22.5441513  29.5721340  15.3644400  23.8609219  30.2120056
 -23.4982033  24.8909969 -20.7479992 -23.5920792  25.7456055 -21.1875362
 -23.7033615  24.3067684 -21.4943409   9.7060690  -3.0309517 -27.3810101
   9.0304604  -2.4353113 -27.7997665  10.4858341  -2.7956269 -27.9603424
  22.5471344 -19.7343826   1.6490113  21.7068291 -19.3734875   2.0716681
  22.4526577 -20.6715126   1.8392437  30.8778095 -35.3928261   5.4284863
  30.2172203 -35.9579048   5.9835429  30.2940731 -34.5997391   5.3603959
  43.9940643  14.8859091   5.9649844  44.7572021  15.4173956   6.2937670
  43.6614189  15.5047445   5.2304506  -9.0341816   7.9035645   2.9954054
  -9.6359615   7.5141754   2.2845068  -9.2364464   8.8829441   2.8266680
 -14.1875525  41.6359138 -33.9943199 -14.2238379  40.6619949 -33.7388573
 -13.2655535  41.8078728 -33.7220268 -33.6869202 -22.8153248   3.0849385
 -34.4828949 -22.6039295   2.7030518 -33.0949631 -23.1158733   2.3587556
  10.2206926   0.9435931  41.7962914  10.8008728   0.6211574  42.5202675
   9.7480698   1.6459305  42.3243752  18.1585808  29.3042450  -5.8571568
  17.6369877  28.5424061  -5.6055660  18.9985867  29.2679749  -5.3786221
 -28.3443203  11.3905029 -41.1339302 -28.4802895  10.5521841 -40.5956078
 -28.5201855  12.0521631 -40.3937569   7.2104287  48.9255791  -4.7319069
   7.5632067  48.3382759  -4.1116776   6.2608318  48.5940399  -4.8665633
  19.4706631  -6.8242555  -4.2402687  19.4984818  -7.2124352  -5.1391320
  20.4020538  -7.1080079  -3.9614258  -3.9430332 -46.8209534 -12.1072311
  -3.2599027 -46.6991310 -11.4199476  -4.6083856 -46.2249069 -11.9253607
  43.6988792  15.6271591  13.9902811  43.5809746  15.2949820  13.0565996
  42.8125076  15.5657654  14.3187485  -0.4795901 -30.8836536  13.9889822
  -0.0575386 -31.7855701  14.1201487   0.3515428 -30.3644447  13.9417191
  40.3681183   8.3650494 -27.2348118  39.9402618   7.8890886 -28.0044899
  40.6979523   7.5668902 -26.7329502  14.8850794 -11.9590673 -23.5513840
  15.3220205 -12.3279009 -24.3375282  15.3713751 -11.1508465 -23.3698997
  30.5818653  -1.9700478 -13.6928997  31.5670242  -1.8900396 -13.7213945
  30.4245167  -1.7687008 -14.6437140   3.1114397 -44.9955597  18.7495918
   2.1785676 -44.7162590  18.8816681   3.2760856 -45.4908600  19.5536537
   7.6657362  22.1826706 -26.1727962   7.4975586  22.0875893 -27.1133232
   8.5156956  21.7057514 -26.0601540   1.9062616   0.0766233  12.7323427
   1.5019507  -0.0279205  13.6503773   2.7866268   0.4351493  13.0063705
 -16.2824001   1.4578753 -22.2305222 -16.3071995   0.9168520 -23.0279160
 -16.0868778   2.3360133 -22.6842270  23.6954575 -11.9699135  -3.7707675
  24.3193703 -12.6669693  -4.0924201  23.7251663 -11.3868008  -4.5447907
  24.8609924 -18.5380592  14.1989431  24.6898613 -17.6291332  13.8737154
  25.7732735 -18.7209377  13.8513060  38.7557144  13.8429012   1.4436510
  39.2413826  13.1518402   0.8736156  38.4721527  13.2740068   2.1218562
  21.8607674   1.8561157  26.9285469  21.9048119   2.2289987  26.0278244
  22.5146847   2.3606839  27.4005661  -0.6665090 -45.7032394   4.6881800
  -1.3986802 -45.0827332   4.7746949  -0.4417103 -45.8349342   5.6524196
   5.7990065 -11.2650480  35.2116241   5.4424543 -10.8449860  36.0019379
   5.2007380 -12.0503464  35.1684151  38.0872803 -13.2525568 -14.5474291
  37.2518196 -13.2313242 -15.0840988  37.7877121 -13.8696222 -13.8636370
  -4.0044408  -5.5638876 -19.4870625  -3.2814722  -6.1918592 -19.3310375
  -4.5530448  -5.7154622 -18.6712551  26.1199379  11.5277977   2.9050043
  25.3863754  11.7514429   2.3262458  26.7226162  11.0524826   2.2753718
   1.3781811   9.9162073 -41.3705254   1.3398331  10.3626232 -42.2212715
   1.8664854   9.1308899 -41.6838646 -19.9884911  17.6095772  26.7873821
 -20.0321217  16.9029884  27.4372215 -19.3994160  18.2015705  27.2583218
 -11.4879971  17.4611626  -5.4748340 -10.5513868  17.3034382  -5.0828748
 -11.8978758  16.6262207  -5.1317496   8.3109179  12.6104136  11.6250992
   7.4487004  12.2271471  11.9476833   8.6473598  11.9209690  11.0743618
   6.7828116 -21.7102089  -7.5774312   7.0844340 -20.7974186  -7.8516431
   6.2633967 -21.8920021  -8.4068489  -6.5521088 -11.5838528 -28.5769005
  -7.0716872 -12.3891268 -28.4731312  -6.8966947 -11.3326664 -29.4586468
  10.5947170 -40.7540627 -17.5503998  11.5675449 -40.5154190 -17.7133389
  10.6239004 -41.7109299 -17.6331596 -10.7332735  16.8141689 -29.9281139
 -10.6839428  16.3827305 -30.7579021 -11.2512846  16.1417198 -29.3831024
 -21.6485100  -2.1976812 -19.8046036 -21.3250980  -3.0256152 -20.1431694
 -21.1393089  -2.1509089 -18.9513931  22.0028801  38.1008987 -22.6978970
  22.4239426  38.9774857 -22.4941349  22.4504242  37.5281830 -22.0654392
 -42.9711990   2.9017208 -11.6665249 -43.7067032   2.3210347 -11.4544096
 -43.1768379   3.6192846 -10.9992514 -14.8582420  -1.5542669 -38.7602730
 -15.4932623  -1.9333565 -39.3615265 -15.3111868  -0.7006059 -38.5424614
  -9.3752241 -28.0066376 -17.9110641 -10.2464876 -27.5860710 -18.1040936
  -9.5744801 -28.3812332 -17.0033588  -8.6680574  -8.9071798  33.1714096
  -8.6126966  -8.2270613  32.4890862  -8.8714285  -8.2840662  33.9311180
  11.2087917   7.7603393 -17.0049934  10.7928934   8.0516720 -17.8001919
  11.6979008   8.5131550 -16.7095547  40.7474670 -22.2207050  -1.1926615
  40.9822159 -23.1352253  -0.8312619  41.6157455 -21.9849186  -1.6003466
  15.3460970  14.5545225   7.8974605  14.5396576  14.1456089   7.9003358
  15.0799856  15.4352074   8.3992395 -34.9629250  15.3330460  24.4569073
 -34.0822182  15.5316753  24.0171547 -35.3617554  14.7714138  23.8547726
  11.7822094   6.0634770  10.7762537  11.0385733   5.6411853  10.2798986
  12.5409813   5.6054554  10.3622322 -43.0975647  28.8740730 -16.8424263
 -43.4694748  28.0887909 -17.3997345 -42.4877625  28.3526554 -16.2730694
 -28.6099815  -3.3535047 -20.9756489 -27.8462105  -2.8848591 -21.4255733
 -28.4969292  -2.9224975 -20.0625210  43.9358368  -7.6049471  28.4502239
  43.2870560  -7.2406874  27.7942772  44.5439339  -7.9955897  27.7481289
 -42.8067055  -2.0413172  15.8217115 -42.8289909  -2.7078235  16.5196323
 -41.9290543  -2.1407256  15.4097672 -36.3088722   3.3752422 -10.0809269
 -36.8373795   3.8306859  -9.3622828 -36.0377350   2.6100402  -9.4929762
  25.7690296   8.3944168  -3.4106622  25.5092659   8.3467283  -4.3125815
  24.9182014   8.2875957  -2.9538279  42.3455276   9.2450447  -2.1106465
  42.4710846   8.8212109  -2.9565830  43.2607727   9.3931274  -1.8316773
  14.7157927 -16.1101913  14.9704895  14.0895767 -16.1866436  15.7071295
  15.0099859 -17.0543804  14.8941193  33.3955040   0.7304698 -12.3371401
  34.3505783   0.5243378 -12.3082485  33.2873306   0.9878933 -13.2209568
  15.5720997  -5.0927157  43.4780655  15.2032604  -5.6203318  44.1738205
  14.7916927  -5.1209636  42.8249741  -9.1894217  20.4186287  -1.7991822
  -9.7336693  20.7948780  -2.5519071  -9.8655777  20.3378048  -1.0972289
  14.0237188 -32.0427971   2.4372172  14.2507582 -32.7349930   3.1332185
  14.7586308 -32.2539711   1.8040125  17.3832417 -12.1132851 -31.3709278
  18.2333393 -11.9198341 -31.7848110  17.5948658 -11.8090029 -30.4526138
  23.6897678  23.1222706 -23.4904442  24.3509922  23.0087872 -22.6936131
  23.5567913  22.1649342 -23.6346817  41.6203918   5.5907593  -8.9810686
  40.7489586   5.4570994  -9.3830776  41.8465919   6.4733109  -9.3566389
  13.1214914 -27.9148922 -18.6462708  13.1066647 -27.0951786 -18.1676979
  12.4231567 -27.8634052 -19.3377666  21.0861683  32.5512390  22.2232418
  21.0979671  32.9855652  23.0791531  20.7089443  31.6458168  22.5120869
  14.0972681  19.8790474 -16.6468143  14.6803865  20.2238770 -15.9690666
  14.0840912  18.8972492 -16.4388905  26.6537361  25.2109966 -10.5059080
  26.2536316  24.3288059 -10.4350271  25.8789196  25.6901741 -10.1064262
  -8.5496845   3.9063237  43.2710724  -8.4990082   4.7773685  43.6844482
  -7.6454148   3.8429523  42.8768120  -2.7060952  35.5151863 -16.6231098
  -3.0499840  35.8104324 -15.7661877  -2.1872900  34.6817474 -16.4039860
  27.9862633  -3.0261061 -22.7761726  27.3681374  -2.3953123 -23.1691723
  28.3306236  -3.3743317 -23.6543846   2.4692998 -11.3546066  -4.1891131
   1.6728908 -11.9688921  -4.2407274   1.9689389 -10.5149126  -4.4980736
  21.9003658 -20.6103172  38.7623863  22.2233887 -19.7134457  38.4439392
  22.3379955 -21.1647434  38.0977554  19.0374851   1.7281628   2.6379094
  19.9272728   2.0907717   2.9083338  18.4480076   2.4466624   2.9378104
  -1.3147842 -14.5222816  35.3780022  -0.8384658 -14.3466663  34.5629768
  -2.1106462 -13.9562092  35.3195000  23.2963257  28.8647804   1.8704841
  23.3968658  27.9145432   1.9995725  24.0375023  29.0388680   1.2596393
  32.9909019  26.6726913 -11.1601324  32.4906693  25.9320660 -11.3385353
  32.5073967  27.1067810 -10.4300318  16.7484341 -40.1746368 -26.9174633
  16.3225422 -40.2884064 -27.7967358  17.5711441 -39.7298203 -27.0840359
 -27.3803711  33.6814957  24.9834118 -27.3469944  34.2113609  25.7836533
 -26.4736099  33.8415375  24.6434479 -15.3363400  -4.4933033  32.6563187
 -15.8687086  -3.7723067  32.9132004 -15.9593887  -5.0905056  32.2800293
  13.1204052   2.9769042  31.6209030  14.0872955   3.3145733  31.5667515
  12.6606512   3.7981477  31.3593044  44.0228691 -18.6733303  -7.9722295
  43.9687195 -18.2916431  -8.8626366  43.9333191 -19.5716267  -8.0688992
  35.7390251  37.3416862 -10.5897255  36.4578018  37.7284317 -11.1571922
  36.2563934  36.5328026 -10.2887182   6.9818964  24.3108559   5.1851645
   6.9296427  23.5106297   5.7117033   6.6646028  25.0229931   5.7609138
 -10.0229177 -16.4501305  29.2626896 -10.0440903 -16.5319805  28.3008232
  -9.2076330 -16.8694630  29.4938736  -8.6568480 -47.7346916 -16.0412464
  -8.8771210 -47.7151031 -15.1194878  -9.1516075 -48.4705734 -16.3389244
 -14.8367910  13.8359852  47.1306114 -15.5585833  14.4651203  47.3163376
 -15.3237000  13.1490898  46.6924057  42.3677788 -10.7447052 -14.8504696
  42.0989494 -11.5048876 -15.3820448  41.4553871 -10.3536711 -14.6695633
  32.4716568 -25.2064648   4.3094606  31.6144447 -24.8948650   4.7182360
  32.3316956 -26.1817799   4.4556298  10.9072990  24.9209194 -14.7507000
  10.3035250  24.0972767 -14.6474199  10.5174522  25.4243774 -14.0085669
  32.1552582 -14.8965712 -35.4368591  32.5792122 -15.5857172 -34.8981743
  31.5554180 -14.5147295 -34.8120384  10.3401289   8.6589756  39.3723984
  11.1013479   8.3812456  39.8912621   9.7414379   8.9164095  40.1906052
 -17.5788689 -15.1377449   9.9572620 -16.6224651 -15.3290501  10.0213232
 -17.8594208 -16.0859070   9.8791628  -5.4364944 -13.7755995  13.9508190
  -6.0061083 -14.4752817  13.6831903  -4.5953102 -14.2013988  13.8710260
  10.2888470  20.3952332   8.5817423  10.7973890  20.2580490   7.7543335
   9.4156427  20.0592060   8.3226795  12.9857178 -15.3014927 -16.4890461
  12.9498510 -14.3342104 -16.3116608  11.9997435 -15.4881325 -16.3534374
 -22.7809067  26.9357777 -17.2582951 -23.2943420  27.7354774 -17.5329132
 -21.9564114  27.4041843 -16.9340038 -21.9679718  -7.2752099  39.7796326
 -22.4924927  -8.0803318  40.0176620 -21.4828033  -7.6869564  39.0237274
  31.1140652 -13.4447689 -10.6231155  31.5299397 -12.5772676 -10.7742939
  31.0865936 -13.7411594 -11.5442581   3.6093395 -13.9398403  43.8503876
   3.2351263 -13.2722626  43.2439766   2.8238907 -14.0145636  44.4833260
 -15.4473619 -35.8301735  23.2275028 -15.7062159 -34.9133835  23.1216793
 -14.5167723 -35.8063393  23.1678123  24.8267784 -33.2130623  21.7988281
  23.9367466 -33.0289726  21.4158325  25.4359283 -32.9023628  21.1019688
  14.6045103 -16.6162548  -0.4339946  15.5829821 -16.8400650  -0.4377388
  14.3201618 -17.0657082   0.3646250 -26.2034569  -9.2708311  -7.1179509
 -26.0302162  -8.3903608  -7.5239811 -25.6110210  -9.2354116  -6.3405957
  -6.7264547 -27.7526016  -0.2219872  -7.6624827 -27.9335384  -0.2359811
  -6.3789897 -28.5579872   0.1622397  18.4185085  10.8028803   4.1957097
  17.7181759  10.3975544   3.6038299  18.0442009  10.4660902   5.0350695
 -31.2948589  26.2540417  -6.2803221 -31.9848671  26.8427200  -6.7185225
 -30.6355305  26.9085751  -6.1134810   7.5594068 -15.6846209  38.8740768
   6.9513035 -16.3141518  39.3082581   6.9813089 -15.4125099  38.1336708
  32.0062523  -8.0130816  40.9819450  32.2850800  -8.8421211  40.4852676
  31.4080925  -8.4036236  41.6846581 -12.5427952 -19.4645863  -2.0031755
 -11.9867840 -19.2306652  -2.7738366 -12.1149406 -20.3540535  -1.7588012
 -38.1154556 -11.4784966  16.9539299 -38.4415588 -10.8584709  16.2220802
 -37.3199654 -11.8039284  16.5067501 -27.5851173 -22.7051544  16.6079178
 -26.9534740 -23.3294315  16.1894569 -27.1569748 -22.5081444  17.4487820
 -17.2761345 -36.0680199   5.9947948 -17.8849144 -36.6357613   6.4844761
 -16.9382610 -36.6985130   5.3780007   2.1736112 -28.8425636 -13.4983397
   2.8236485 -28.5720634 -14.1906567   2.6601355 -29.6132431 -13.1339474
 -25.8768635   8.0884523  -5.7310228 -25.0753288   8.1740999  -5.1534181
 -25.8594513   8.9492579  -6.1557498 -20.0832882   9.9943409  -4.9169555
 -19.3638229   9.9857855  -4.2837076 -20.8105850  10.4262486  -4.4740949
 -10.1548910   2.9440408  14.8953991 -10.7121172   2.1991167  15.1667871
 -10.6932869   3.7313304  15.1707926  13.6937466  45.6680908   1.7755951
  14.3522625  46.3032875   1.4618336  14.2802010  44.9335556   2.1081884
  44.3765030  11.4348726 -27.8049850  43.5897789  11.2403917 -28.3897419
  44.8864174  10.6137915 -27.8953819 -36.9069481 -21.8920784 -13.5405998
 -37.1733360 -21.5826149 -14.4147596 -37.5127182 -22.6092968 -13.3283577
   1.0348939 -27.8761578  -1.7564207   1.0202212 -28.6173000  -2.3755159
   0.4955501 -28.2481747  -0.9769018   4.8574138  19.7757092  -8.8532982
   3.9220195  19.6652451  -9.0493622   4.9099689  19.5090065  -7.9171200
  30.8492603  -5.8954740 -42.4453316  30.1971455  -6.5284982 -42.8880806
  30.1939621  -5.2098436 -42.2023926 -43.8823357 -27.9072247   5.4754696
 -43.6765518 -27.3421040   4.7171650 -44.0365334 -27.3561001   6.1910343
 -41.6319885 -32.1345634   0.0510629 -40.9792061 -32.5976105  -0.4887568
 -41.5054932 -31.2458973  -0.3268078  35.1496277   1.0464108   3.1601083
  34.6127625   1.8464829   3.4485352  35.5974579   0.9141456   4.0347595
  12.5450335  33.5056458  -8.5014019  12.3273649  34.1835175  -7.8385849
  11.8970242  32.8299980  -8.2108650  16.6163864 -27.7318821  24.2230167
  15.7026148 -28.1205482  24.3452244  16.6083012 -27.0842972  24.9475365
  32.1616707 -32.3280716  -2.1666982  32.2043915 -31.4084492  -2.5159559
  31.1934338 -32.2604485  -1.8330466  39.6115150  -5.9894853 -21.7893600
  40.4140663  -6.1387949 -22.4102688  39.0880585  -5.3879805 -22.3376160
 -14.0777493  34.9891396  25.0010109 -15.0151634  34.5791130  25.0012894
 -13.9128513  34.9468117  25.9763527 -21.1582565   2.8605185 -16.6378613
 -21.5400143   2.1768289 -16.0446205 -21.7336845   2.7612946 -17.4045048
  30.0527878  26.2367802 -20.1459332  30.1747894  26.8889351 -20.8092918
  31.0004253  25.9786530 -19.9400902  36.6193123 -12.7042341   2.3184221
  35.7183952 -12.3787889   2.6030557  36.2562523 -13.4066067   1.6559074
 -26.3939819 -20.7304935  19.8578491 -25.4447327 -20.9814491  19.6097431
 -26.8063812 -21.5764809  19.5461903 -17.7980099  31.3029003  -3.9467292
 -18.2349472  31.3407669  -3.0633845 -18.2201424  30.5111237  -4.3074150
  -4.8311133  44.7937698 -15.8085442  -5.5682306  44.4442215 -15.2816133
  -5.2341585  45.1805534 -16.5960178   9.6873465  46.0775299  20.9456768
   9.3727303  46.7525826  21.5977879   9.7021809  45.2840958  21.5142403
   9.1116514   4.7981939 -14.0232363   9.9820423   5.2659030 -14.1253805
   9.3477850   4.1933379 -13.2977982 -37.1518898 -29.4710827  18.7925510
 -36.2689972 -29.3425694  19.0332985 -37.1387672 -30.0198116  18.0305939
  29.5373325  29.8719120 -14.9378729  29.5612659  28.9823360 -15.3677969
  28.9725361  30.3640118 -15.5509291 -34.4021530  24.7466507 -15.8103571
 -34.4898453  25.2033749 -16.6456757 -33.8069115  25.3948383 -15.3268480
  -1.9790171  14.0592737  14.8714828  -1.1443045  13.7813511  14.4512930
  -1.6772482  13.9687223  15.8444891 -25.7493839  26.7638893 -32.0901794
 -24.7986450  26.5500355 -32.0493011 -25.6678104  27.7857552 -31.9179020
  21.2362556 -33.6959305  24.2470856  21.2373085 -34.5554237  23.8514729
  20.2843018 -33.6222076  24.5884724  12.5476456 -30.5432758 -20.9793720
  11.7219830 -31.0610657 -21.1556034  12.4094515 -29.8410072 -21.5953903
  32.0322838 -14.1220999  25.2518311  32.2474861 -15.0258951  25.0499382
  31.5599613 -14.1792774  26.0879478  -2.4200795 -14.3015747  41.2999916
  -1.6145239 -14.9289122  41.1635628  -3.0379543 -14.6631651  40.6085930
 -21.0811653  -9.4786100  29.3108177 -21.4362965 -10.3563862  29.4833126
 -20.3222656  -9.6472244  28.7425976  20.1823254  16.2276955 -24.4033890
  19.5342617  16.4832497 -25.0576096  20.7899647  15.6800728 -24.9291954
 -16.4766808  -4.8807039  20.4725304 -17.0944386  -5.2696819  19.7505569
 -15.7770882  -5.5791368  20.4353638   7.1453319  24.8209763   0.8131824
   6.8641372  25.7505341   0.6827096   7.7859664  24.9242516   1.5153692
  12.8537827  42.0709572   5.8613949  13.4309664  41.2790947   5.6599669
  13.4008598  42.4957352   6.5964313  12.5446672  -1.2808093  24.5202484
  12.8197613  -0.8103216  23.7118912  12.1447439  -0.5711472  25.0678711
 -16.0640411  24.9871864   2.8691072 -16.1921730  24.3341293   3.5642297
 -15.9919996  24.4066715   2.1217983  11.9856892 -11.4084663   1.6047876
  11.0856943 -11.2744989   1.9263767  11.9114475 -11.9718933   0.8233568
  -9.5865765 -22.2847404  22.9682198  -9.1016541 -22.8330708  23.5721779
 -10.4193516 -22.8667812  22.9599152  14.2329798   4.0342541  36.0787125
  15.0580692   4.1710563  36.5257607  14.0467291   4.8699055  35.6792259
  35.5962524  32.1186638  18.1914558  35.3478508  32.9274788  18.8139191
  34.7663269  31.6070023  18.3474693  -9.1087513 -31.4324341  -4.1851888
  -8.3343983 -30.8456097  -3.9561977  -9.2213707 -31.1137962  -5.1413641
  20.4452991  -1.3161106 -17.5391140  20.7904415  -1.3309531 -16.6350822
  19.7979012  -2.0474231 -17.4535599  10.4493494  -1.6423515   3.6729441
   9.7452574  -2.1638515   3.2148356  10.5373640  -0.9177090   3.0366395
  33.5780830  29.1237564   9.4016075  33.4549065  29.5042648   8.5734415
  33.2093201  29.7978954  10.0136375   3.6423492 -28.5892391 -16.0232754
   3.5939195 -27.9258423 -16.7248611   3.2439289 -29.3800106 -16.4486904
  -9.9136076 -37.2093124  19.0111217 -10.1359882 -36.4622002  19.6268616
 -10.0220108 -36.7200127  18.1547832   3.3822122  12.6033859 -40.3489723
   3.0712745  12.9612875 -39.5124931   2.6919682  12.7904091 -40.9855576
  40.0572739 -11.5041609 -19.6491413  39.7850304 -12.4411955 -19.4435730
  39.8036270 -11.3505354 -20.5499916  39.9625626  11.0444107  11.0697737
  39.3736420  10.8329239  11.8252993  39.3631668  10.7280235  10.3485575
  24.2533951  -4.8081245   8.3857517  23.6735592  -5.5157928   8.0190315
  25.0092068  -5.4214821   8.6845503  27.1675720 -30.3041935  -1.3730625
  28.0901928 -30.1426678  -1.6413716  26.7234688 -30.4371929  -2.2696300
 -19.9557762 -46.3873863  -2.0976934 -19.4527531 -45.5709381  -1.9194230
 -19.6708145 -46.5849838  -2.9791484  -1.7612901  41.5832939  21.1590786
  -1.6999003  40.8915215  21.8909626  -1.2753643  42.3298798  21.6548386
  -2.5381408   3.7783179 -10.2559109  -1.7595214   3.8451853 -10.8400345
  -3.2307837   4.1617465 -10.8260107 -16.2954865   1.5780004 -36.1482162
 -15.4287195   1.9246523 -35.7966118 -16.7083015   1.2174256 -35.3912544
  32.5575638 -16.9312668  10.9395533  32.9735794 -17.8010063  10.8435030
  32.0275307 -17.0817528  11.7509861   3.2790356  44.6802330   8.9935713
   3.7677457  43.8761482   9.3185158   4.0245185  45.1297531   8.5650053
 -39.7128830 -16.9909019  -2.2817371 -40.3328972 -17.7753963  -2.4670897
 -39.7740669 -16.6132336  -3.1542799 -14.4852352  16.2774925 -12.7591705
 -15.3508196  15.8969135 -13.0536222 -14.7026596  16.4287376 -11.8217678
 -10.8442430   9.9977636 -52.6647606 -10.2879925  10.8376760 -52.4242973
 -11.7350512  10.3356628 -52.6129684   4.0160413   3.7067866  44.4405289
   4.8178163   4.0781307  44.8963318   3.5195823   4.5909734  44.2606239
  34.5707130  28.5256042  -4.1884985  34.0682449  28.4131527  -5.0044570
  34.0773964  29.1177845  -3.6400568  15.3632021  10.5160341  32.7116547
  14.4461584  10.9821749  32.8203354  15.6610785  11.2296362  32.0553322
 -28.3366108  26.9026070  28.7125721 -27.5932121  26.3033867  28.8827324
 -28.9865799  26.5765495  29.4019299 -31.4011097   0.5949582  29.9731407
 -30.5873108   0.3141558  30.4605274 -32.0483589   0.2624297  30.6538029
  -8.8079510 -22.0608349  -2.1430850  -8.0532389 -21.9683285  -1.4968467
  -8.3154020 -22.4535522  -2.9268146 -38.8866653   2.8290546 -24.0431690
 -38.1487083   2.6142063 -24.7038574 -39.6200027   2.4267268 -24.5059242
 -18.9845123  36.4200554  28.5276203 -19.3687859  35.6707573  28.0275536
 -18.7603340  35.9554672  29.3735733  -2.1152577 -46.1465569 -10.1218386
  -1.3222556 -46.7029686 -10.0756350  -1.7176381 -45.3259354 -10.4865026
  16.6951160 -32.3201637 -24.9634094  16.5864716 -32.8912544 -24.1378651
  15.8619928 -32.4876404 -25.3441925  15.9628134 -11.0991278  37.9810982
  15.9555140 -11.2057619  37.0005608  15.0667782 -10.7188549  38.1527176
   1.5274715 -25.2836514  -2.3253853   2.0080988 -25.4336529  -3.1286833
   1.3721586 -26.2437935  -2.0793121 -38.1429634   3.2431397  -5.3358569
 -37.5644951   2.7635050  -4.6822262 -39.0044518   2.9556508  -5.1244202
  -0.9605656  -2.5315051 -33.6095734  -1.3955816  -1.6472754 -33.7680054
  -0.6499965  -2.3100388 -32.6606903 -37.3876305 -22.3811302   0.6970873
 -37.9565811 -21.5588017   0.7817723 -37.4106216 -22.6997948   1.6309488
  10.5277891 -35.8948669 -16.0720901   9.7276831 -35.7857285 -15.5343370
  10.5488625 -36.8927994 -16.1547718  -4.3031025 -33.3843422   6.9455895
  -4.6536665 -32.7187881   6.3134799  -3.4118857 -32.9639053   7.1364574
  -7.0524430  16.2182217 -20.3051834  -7.3620977  15.3870754 -19.8214436
  -7.7686620  16.8411331 -20.0824718  40.3869209   5.9721241 -14.4104300
  40.3989410   5.3313131 -15.1450539  39.6029663   6.4991784 -14.6555367
   5.3118191   0.1089597   2.4351153   5.4550376  -0.8324512   2.1574044
   5.6348500   0.0652421   3.3369808  -0.3715140  42.6357002   1.7615753
   0.2753201  43.3437080   1.9936337   0.1956722  41.8501587   1.8995335
   3.9539785  -8.1956558  18.2343102   3.6844585  -9.1659508  18.1041222
   4.7813697  -8.3476028  18.6952057  -8.6023636  -9.8968086  -6.8313346
  -8.2469826  -9.4196672  -6.0607877  -8.8531656  -9.0796680  -7.3493242
  20.3736553 -36.8103523 -23.8830910  19.6435509 -37.2825699 -23.3838310
  19.8614502 -36.0571594 -24.2907181   1.8955063 -44.8812256 -21.6058216
   1.7567538 -45.4371796 -22.4357224   2.8714287 -44.8780670 -21.5899639
  -5.6523123  15.2017365 -15.3431234  -5.7526059  14.3905134 -14.8137360
  -4.7380257  15.4952021 -14.9046535  -5.2014880   9.8266621   5.3578033
  -5.6865549   9.0513372   5.0002112  -4.6006732   9.4113789   6.0107784
  13.2670126 -40.5773888 -18.4196301  13.3626261 -40.6278763 -19.4132099
  13.8043346 -39.8283424 -18.1731548 -24.9642391  27.1414833  13.0354404
 -24.5829163  27.6446686  13.8085051 -24.6969814  26.2308540  13.3077135
  19.6141281 -38.6117897 -29.7246876  20.1941872 -37.8342514 -29.9518604
  18.9271145 -38.4285011 -30.4834652   7.7627730  31.0142574  31.3663216
   8.4153509  30.5738010  30.8181725   7.3729081  30.2387257  31.9051189
  12.6315756 -32.6101723  28.4507389  13.1435280 -33.0992889  29.1153584
  13.3298273 -31.9024239  28.2454109  27.8121910 -13.6306400 -28.0318069
  28.7451458 -13.8887033 -28.1419926  27.4079609 -14.4996872 -28.1008320
 -21.5318813   0.3113596  15.8766594 -20.9012280  -0.2516610  16.4130859
 -22.1239052  -0.3837785  15.6264038 -18.7474422  13.9525490 -20.5466022
 -18.8114185  14.3057680 -21.4525433 -19.0173550  14.7505884 -20.0415649
  24.8923569   4.6224399  34.7039871  25.1325893   4.8950958  33.8059654
  25.8139896   4.6289535  35.0966492  27.4853230 -37.4026833   4.0832443
  28.0501747 -37.8318520   4.6866441  27.1197472 -36.6724167   4.6056085
 -12.4669380  23.7891216   9.2312546 -12.4220219  22.8895302   9.6029863
 -12.1700087  24.3442364   9.9297514   9.6479130 -26.1656494 -22.6871510
   9.3027878 -25.9925518 -23.5503559  10.2614985 -26.9116535 -22.8541222
 -12.5421238 -30.8017216  22.4332218 -11.9814816 -30.0970840  22.8516159
 -13.2330065 -30.9599514  23.0962830 -34.9336395  33.5765686  -1.0594902
 -34.8520470  32.9399643  -1.7940394 -35.4382668  34.2501564  -1.5198635
  17.7783279  -2.6504006  32.4151344  18.3897381  -2.4795508  31.7329826
  18.3249741  -2.4505670  33.2462234
   0.3892786  -0.9201306  -1.1160558   0.0769223  -0.2586165   0.0943811
  -0.0282268  -0.0149900  -0.4540029  -0.7862138  -0.0658614   1.0037816
  -0.6584142  -1.4738586   0.4207251  -0.1590734  -0.0848382   0.2104845
  -1.1047429   1.3343704   0.0262147  -0.1123139  -0.0144321  -0.0071910
  -0.2933885  -0.6630932  -0.0187845   1.1189039   0.5772030  -0.2037719
   0.2498295  -0.2528492   0.0316482   0.2342295   0.1012219   0.0011846
  -0.5011653  -0.3847881   0.2019435  -0.4053284  -0.1713251  -0.4998993
  -0.1474518  -0.1576915  -0.2821850  -0.4389776  -0.1868109   0.8051527
   0.8120501  -0.3191271   0.0761926  -0.0609583   0.8375366   0.1401275
   0.0053515  -0.3612479  -0.1681054   0.0009449  -0.1134503  -0.0151984
  -0.1463470  -0.0433355  -0.5036435   0.2207144   0.4140362  -0.1467202
   0.2463003  -0.0233850   0.0181122  -0.0773545  -0.2175649   0.1714474
  -0.2281269   0.0206657   0.0433305  -1.6298589   0.5340912  -0.1917168
   0.4133904   0.2857093  -0.1774165   0.5811348   0.7827415  -1.5531627
   0.9607688   0.5149686  -0.3924780   0.2069202   0.1140576  -0.0461125
  -0.0336383   0.0741467   0.0952075  -0.0169858   0.0710618  -0.1408311
   0.0971026  -0.0278099   0.2005584   0.2861349  -0.1539360   0.0518200
   0.0356137   0.1021361   0.4498104   1.2260256  -0.3850231   0.2753844
  -1.1201179   0.0940208   0.2026455  -0.2843484   0.0221000   0.2955735
   0.8194950  -0.8300353   0.8406847  -0.1369499  -0.0013398  -0.1278360
   0.0733178   0.0398859   0.2687310  -0.2447561  -0.2540825   0.3124314
   0.0814470  -0.0327255   0.0890845  -0.0252961  -0.2774809  -0.3174183
  -0.1653385  -0.6199891  -0.8963614  -0.4171450  -0.0112702   0.1869772
  -0.1172293  -0.5007308   0.2682426   0.9018955   1.0140119   0.8045465
  -0.2677796   0.1969652   0.9381232  -0.4235210   1.2754997  -0.1721409
   0.0302484  -0.1856738   0.2041737   0.0579163  -0.0973682  -0.1090733
  -0.0453955  -0.4181624   0.0180140   0.4108102  -0.1120156   0.9487495
  -0.1798720  -0.0300113  -0.2877001  -0.0424695   0.2375825   0.1078499
  -0.0595600   0.3290550   0.3204286  -0.0711118  -0.2510890   0.1469461
  -0.0071343  -0.2956968   0.0364566  -0.5161896  -2.1045794  -0.7690560
   1.4533484   0.6268716  -1.7578777   0.0399876  -0.2686969  -0.0547131
   0.0626929   0.0256209   0.2826634  -0.0740332  -0.0107288  -0.1372240
  -0.0276242  -0.0891567   0.1877779  -0.2489244   0.3103805   0.2669438
  -0.1741611   0.1444627  -0.3733936  -1.0712532   1.3216538   0.7697233
   0.3412698   1.2244558  -0.3328633  -0.1625802   0.0753184  -0.0140695
  -0.2886620  -0.0408145  -2.2854977   0.0741675   0.1796375   0.3972418
   0.1833519  -0.0344630   0.1292474   1.0999296   0.5815440  -1.1626594
  -0.2839597  -0.1138479   0.0294583   0.3341851  -0.1711529  -0.0918953
  -0.5148942   0.2398736  -0.3630565   0.1594375   0.1618889   0.1252954
  -0.0575677  -0.2954125   0.0110565   0.0488897  -0.2497936  -0.0560261
   0.2208257  -0.3111153  -0.2443918   0.0870307  -0.0369310   0.1253607
   0.5435099  -0.1985867  -0.9106978  -0.2043994  -0.0766759  -0.4705839
   0.3342662  -0.0635296  -0.1672864  -0.1048992   0.3524235   0.7424497
  -0.3378960   0.5822800   0.5225021   0.1360503  -0.3313305  -0.4464055
  -0.0262883   0.0725818   0.0459361   0.2472006  -0.4039653   0.0574754
   0.0081898  -0.4114536   0.3445404   0.1903365  -0.0321086  -0.0151490
   0.5686918   0.8884205  -0.6449949   0.0128324  -0.2987270  -1.0898159
  -0.0635139  -0.2136330   0.0019586  -0.0929246   0.0534097   0.2723528
  -0.1957981   0.0554495  -0.2680311   0.2807869   0.2594848   0.3136765
  -0.2756765  -0.3236173   0.0098850   0.1693641  -0.1711825   0.1107041
  -0.5559603   0.3538817   0.5290440  -0.2279995   1.6846725   0.5055651
   0.2025993  -0.1588017  -0.1046150   0.0186563  -1.1260699   1.2978152
  -0.2303347  -0.0518545  -0.2635048   0.2826890   0.0169353   0.1811483
  -0.0981501  -0.1498509   1.3061541  -0.1609070  -0.0410720  -0.1942578
   0.1214230   0.2354745   0.0258164   1.3224195   0.5771452  -0.0396885
  -0.1717067   0.1248746  -0.1393327   0.2217547  -0.0200846  -0.7862560
  -0.0440412  -0.1986516   0.1592813   0.2292937  -0.5527915   0.1145077
  -0.4643796   0.5936928   0.9816253   0.3069524   1.2252828   0.0903385
  -0.4156504   0.1413576   0.1128579   0.1649807  -0.0429552   0.1222759
   0.1578991   0.6226305  -0.1124705   0.2362761  -0.1974332   0.1001559
   0.8412086   0.5017830   0.3103355  -0.1323493  -0.2800347   0.1940556
  -0.1953860  -0.8891577  -0.8361344   0.1048475  -0.4888631  -0.0243295
  -0.0561298  -0.0283683   0.3296727   0.2263105  -0.0717792   0.0925881
  -0.0535417   0.1449631  -0.1500028   0.0231358  -0.0255369   0.0377860
   0.0550413   0.1250290   0.3970568  -0.0099848   0.0487000  -0.0693796
   0.1246859   0.6061541   1.2675909   0.7911708   1.0643365  -0.1975906
   0.3976455   0.0482349  -0.2106146  -1.2129515   0.7730920  -0.1089557
   0.1407326   0.3881073  -0.3108590   0.2044242  -0.3509541   0.0767867
   0.3610028  -0.8705885   0.0783503  -0.0409108   0.2510877  -0.1124403
  -0.0814345   0.1760456  -0.1732097  -0.1866862   0.2329339  -0.3588707
   0.1708219   0.0482465  -0.4165811  -0.1583900   0.4077226  -0.0538826
  -0.3466707   0.0898492   0.2357216   0.0928845   0.1586491  -0.2415126
  -0.1261323  -0.3777190   0.6406634   0.0248257   0.4147973  -0.0741768
  -0.1593605  -0.1218408   0.3966375   0.2724765   0.5947548   0.1789647
   0.4141153   1.3341982   0.2426067  -0.1700061   0.0502517   0.1984378
  -0.1549760   0.1331687  -0.1773279  -0.1803631  -0.4319116   0.0233946
   0.2019553   0.3823295   0.5210207  -0.1384297   0.0526348   0.2159949
   1.1711169   0.1732224   0.2805242  -1.5348718  -0.3782003  -1.0827543
  -0.0557674   0.1050643  -0.0588316  -0.2021610   0.0774771   0.0586449
   0.2020786   0.1753210   0.3065735   0.2162902  -0.1131812   0.1241238
   0.0965485   0.0542577  -0.1720281  -0.0068776  -0.1718765  -0.2050588
  -0.1724144   0.5479174   0.1458120   0.3652900   1.1283735   0.0905319
  -0.1542468   0.0569156   0.4838638  -0.5984662   0.7771186   0.4363352
  -0.0868688   0.1645090  -0.0046093   0.1558675   0.0932655   0.4454127
  -1.0668688  -0.7767642   0.4632415  -0.4249662  -0.0110904  -0.5321677
  -0.2161967   0.3405308   0.0393562  -0.2255423  -0.6281681  -0.3781321
   0.0087974   0.0979158   0.0037382  -0.0765029  -0.2245233  -0.2425111
  -0.2268711  -0.1276948   0.1581669  -0.0072180  -0.6985117   0.1959470
  -1.7757007  -1.7482703   0.1946280  -0.9806982  -0.5723192   0.6919905
   0.2376845  -0.1523827   0.1254252  -0.0842907   0.1147318  -0.1906012
  -0.2696730  -0.4443635   0.0071972   0.2626710   0.2640462   0.2970857
  -0.3341393  -0.0406308  -0.1587247   0.1366336  -0.0424787   0.1216635
   0.9956579   0.4570450   0.4380778  -0.2101177   0.2313567   0.0965562
  -0.4856817   0.2949144  -0.1133743   0.6087617   1.1386235   0.8838205
   0.1461655  -0.0904616   0.0685117   0.0640601  -0.0237674   0.0080860
   0.0278384  -0.2437886  -0.1229718  -0.1040377   0.0853692  -0.0675362
  -0.1218906   0.2297028   0.0252876   0.1977352   0.2222559   0.3363584
  -0.3156428  -1.1574891   1.1725267   0.2901181  -0.0280771  -0.9348766
  -0.1069165  -0.1173930   0.2675987  -0.4158169   0.4658276   1.1732036
   0.1837743  -0.0461568   0.0137293  -0.1344308  -0.1004454  -0.2081927
   0.2055762   0.7879640  -0.2761283   0.2062513   0.1911537  -0.0081711
  -0.2794266   0.0956358   0.1904816  -0.6487523   0.2148821  -0.3563615
   0.4185205   0.0909407  -0.3488990   0.1390368   0.5528790   0.2752936
   0.6149163  -1.4005749  -0.0524535  -0.3951316   0.2989120  -0.7202293
   0.7373924  -0.5059984  -0.7918786   0.0480651  -0.0508170   0.3692918
   0.3306347  -0.1009532  -0.0627870  -0.0429000  -0.1689537   0.1408053
  -1.4523166   1.3425827  -0.6707395   0.0646465   0.0471099   0.2883531
  -0.2210985   0.1070919  -0.2870154  -0.1541372  -0.0841047   0.3028650
   0.4772638   0.7801402   0.8498054   0.2742328   0.1115169   0.1131403
  -1.9792984  -0.6641672  -0.8259767  -0.3693240  -0.6840349   0.7411128
   0.0431417   0.3596916   0.2124275   0.3007728   0.1079264   0.0241929
  -0.3210197   0.1867056  -0.0589607  -0.1981822  -0.0191805  -0.0888678
   0.2547368  -0.1001720   0.4535891   0.3244511  -0.1529161  -0.2524330
   0.1813759  -0.5932088  -0.6199986   0.3428211  -1.6973898  -0.5723575
   0.3908260   0.3318418  -0.4116271   0.7970120  -1.0243342   0.0423086
  -0.4287659  -0.0950020   0.2396245  -0.1333936  -0.3266990   0.3032712
   0.3390427  -0.0690646  -0.0999248   0.2098846   0.0488378   0.0841661
   0.3760405  -0.0374434  -0.1591847   0.9342017  -2.4654336   0.7927204
  -0.1737411   0.1214653   0.0224212  -0.0927786   0.2211879  -0.2668002
   0.1724925  -0.0079840  -0.2317105   0.0050400   0.1765874   0.3615001
  -0.1987674   0.0361401  -0.0182797  -0.3658788   0.5922173  -0.4348914
   0.0175793   0.0954853  -0.4937949  -0.4623267   0.5751444  -0.3311062
  -0.7456167   0.2398435  -0.9274359  -1.2108407   0.6453096   0.1047693
  -0.0997461   0.0557299   0.0261946  -0.0580412  -0.2660292  -0.2882439
   0.0024917  -0.0356137   0.3780934   0.8893741  -1.0073225  -0.3017965
  -0.1648535   0.1873564  -0.2069186   0.0716533  -0.1305995   1.1676757
  -0.1583797   0.0454316   0.5258331  -0.0277593  -0.2047367   0.2890526
  -0.2251843  -0.1357573   0.2129335   0.2054019   0.2236844   0.1101007
  -0.4862882  -0.0818011  -0.1636798   0.1791635  -0.0436537   0.0287194
   0.1507691  -0.3059866  -0.1762831   0.1070152   0.6553573  -0.0814743
   0.1166688  -0.8735628  -0.0260272  -0.0685570   0.0003617   0.0000725
  -1.0718468   0.6106679   0.9315255  -0.0255723   0.0473756   0.0624980
  -0.4961636   0.0733008  -0.3282391  -1.5129706   1.1077071   0.6473213
   0.0488987  -0.0149374  -0.0106891   0.1234717   0.2249255  -0.3276202
  -0.4945430   0.0013273   0.9369366   0.0053335  -0.4314977   0.0167278
   0.1670045  -0.5968100   0.0674243   0.0013541   0.3394926   0.1632287
   0.2695504  -0.2513066  -0.3316636   0.2061642   1.4321306  -1.3978914
   1.9217658   1.0879968   0.2647797  -0.0592420  -0.2453735   0.0309007
  -0.0111351  -0.0837400   0.2151336   0.3075275   0.1727453   0.0081006
   0.3361599  -0.1062724  -0.2386115   0.1837874  -0.2308882   0.6239181
   0.0125608   0.0480062   0.0820813  -1.1770891  -0.9980823  -0.3560481
  -0.5933948  -0.5123519   0.0494508  -0.0363202  -0.2269601  -0.0160422
   0.0222191   0.3624874   0.1393000   0.0517868  -0.1386953   0.0501174
   0.3169799  -0.3223857   0.1061394   0.3974542  -0.0554783   0.2308901
   0.0640298   0.1615597  -0.0061483  -0.1961928  -0.1573948  -0.8905208
  -0.7559494   0.8940356  -0.0702644  -0.0257094  -0.0561031  -0.2175978
   0.5313077  -0.7567043  -0.2082286   0.0457491  -0.0066007   0.2217701
   0.1978346   0.0417311  -0.1115283  -0.3397971  -1.5363593  -0.9589252
   0.4180742  -0.1103472   0.0419233   0.4378971  -0.0302083  -0.1886735
   1.5888059   0.0063320   0.4803063   0.1776378   0.2844611   0.1083792
  -0.1719713   0.0453265  -0.3165828  -0.2237230   0.2107996   0.2337342
   0.2448658   0.2704121  -0.1977421  -0.1474061  -0.0318461   0.0779108
  -1.8003967  -0.1216197   0.3220676   0.5652094  -0.0088268   0.1110184
   0.0499820  -0.1108792  -0.0243592   0.9435877   0.4783645  -0.5174776
   0.0961848  -0.1949218   0.0196659  -0.2932282  -0.1968073   0.2580806
  -0.2776415  -0.1953392  -0.1354547  -0.1054131  -0.4979708  -0.3267833
   0.1703897  -0.3184288  -0.0882992   0.0060216   0.8592747  -0.7508238
   0.1729312  -0.1995751  -1.0199673  -0.0050113  -0.1215549  -0.0262006
  -0.1044805   0.1602475   0.0929316  -0.2175549   0.0383226  -0.0266550
  -0.1380177  -0.1571839   0.0084951   0.1339726  -0.1777636  -0.0394319
   0.0742615   0.3447417   0.3763298  -0.8659796   1.4795699   0.0047946
  -1.0080649  -1.5496620   0.5446725   0.0208440   0.2822638   0.1487578
   0.5537453   0.0391239  -0.1058117  -0.1522200  -0.3235240   0.0280755
  -0.1165934   0.4047846  -0.2322926  -0.1602646  -0.6433924   0.6911806
  -0.1236971   0.0431977   0.1975779   0.0108846   0.2849585  -0.4500110
  -1.5004787   0.2149592   0.0947302   0.0504944   0.3637837  -0.1501382
   0.3098745  -0.0740337  -0.0797437  -0.1041264   0.0160104   0.2294464
   0.1991857   0.2685725  -0.1757444   0.6977042   1.1536090  -0.3487144
  -0.2156995  -0.0110503   0.3861254  -0.0511633  -0.1482196   0.1784961
  -0.1605379  -0.2823810  -0.4661189   1.0919631  -1.2099459   1.5560788
  -0.1216935   0.2457361   0.5261214   0.0381097  -0.1966852   0.1055766
   0.0562290  -0.1456513   0.2841641   0.5836461  -1.1717001   0.9660828
   0.1326175  -0.2020420  -0.2530059   0.1070114  -0.3082038   0.9429378
  -0.2149069  -0.1064190  -0.4644361   0.1125769   0.1025199   0.1188313
  -0.1024945   0.1074981   0.3904440  -0.1507612  -0.1117363  -0.1565280
   0.0127110  -0.0891785  -0.2030987   0.0521255   0.1348885  -0.1415735
   0.1244808  -0.0543467  -0.3635149  -0.9420500   1.0274825   0.5079907
  -1.3255560  -0.7584903  -0.0124813   0.1469131  -0.0342773  -0.0430282
   0.2193120   0.1179521  -0.5886728  -0.2202922  -0.1587960   0.1458681
  -0.0247007   0.2106978   0.3459613   1.2892632   1.0571049   1.9480816
   0.0315885   0.2037823   0.3271555   0.0368028   0.1159122  -0.0577124
   0.8016070  -0.7451264   0.7884417  -0.0160146   0.1626685   0.4345820
  -0.0827048  -0.3160339  -0.0027757   0.1880022  -0.0978128  -0.0108459
   0.2437862   0.0491365   0.2245412  -0.0325739  -0.1546326   0.0098911
   0.7787422   0.8657206   0.8055272   0.5060169   0.4455032  -0.4463742
   0.0301774   0.1818930   0.3123912   0.7098020  -0.2074818  -0.3696803
   0.9771058   0.4869678  -0.4335086  -0.0008918  -0.0240077   0.0057627
   0.0978637  -0.1002552  -0.0210524   0.2772688   0.0116439  -0.3284815
   0.4144879  -0.3988517   1.2145309  -0.0749136  -0.1409436  -0.0066940
   1.2007359   0.3036791  -0.8924146  -0.3887826   0.4144070  -0.3302931
  -0.1076923  -0.1176504  -0.0939829  -0.1386287   0.0810563   0.2653418
   0.2522500   0.2575969   0.3616623  -0.1798391   0.1724800  -0.3725407
  -0.2675752   0.0315026   0.0129727  -0.0183119   0.0200994  -0.1546459
   0.6971927   0.2199080   0.0816629  -0.1221835  -0.1074743  -0.6711087
   0.0854998   0.0575244  -0.0994441  -1.3894111   0.8136196  -0.2843306
  -0.0781808  -0.3807994  -0.1042397  -0.0441173  -0.0269763  -0.1204438
  -1.0578532  -0.7670645   0.0515632   0.0347675  -0.1736449  -0.2383955
  -0.0902782   0.3510675   0.5616946  -1.7555451  -0.3604415  -0.1796057
  -0.3143294  -0.6433143  -0.0721235  -0.0768482  -0.0659730  -0.3639575
   0.9991460  -0.1339319   0.9353192  -0.1360926  -0.6848700  -0.4265459
  -0.1872664   1.1400257   0.4170178  -0.0391428   0.0913448  -0.0790336
   0.2171806   0.2084640  -0.1820399  -0.1783615   0.0896211  -0.5073735
  -0.4384888   0.3242831  -0.0304087  -0.1381695   0.3503152  -0.5935523
  -0.0757063   0.1596816  -0.1754211   0.1738600  -0.1805725   0.0123914
  -0.4918379  -1.7631651   1.9332092  -0.1130686  -0.0353607  -0.2559739
   0.7922866  -0.3723210   0.1329344  -0.2294225   0.0294450   0.1616579
   0.2544698   0.2141936  -0.1368146   0.1896968   0.0820537  -0.0031002
  -0.4010551  -0.2112150  -0.3305644  -0.4758852   0.0351793   0.1421527
   0.0371166   0.0166432  -0.0020809   0.5525373   0.0187483   0.3191626
  -0.1257967  -2.0210805   0.3762339   1.1495286  -0.4354010   0.9112328
   0.1509162   0.1088442   0.0613979   1.3374594   0.6263793   0.2891589
  -0.1471615  -0.0843519  -0.1767187  -0.0427248   0.2244001  -0.5484815
   1.0517575  -0.7711824  -1.0528163   0.0044747  -0.1857738  -0.1732561
   0.0434980   0.2194281  -0.1754030  -0.1300112   0.5507335   0.6330981
   0.0614389  -0.3413278   0.2287389   0.1289029  -0.4423274  -0.1137448
  -0.5040920  -0.2284485  -0.1652949   0.1871085   0.3547342  -0.3879525
   0.4133499  -0.1969311  -0.0041835   0.0864274  -0.0335328  -0.6664392
   0.0835683   0.0258016  -0.1480770   0.3800468   0.0826594   0.0266793
   0.6047783  -0.5520627  -0.4209255  -0.2306103   0.1114582   0.2011356
  -0.0645150   0.0930728   0.1062164  -0.1665484  -0.2545721  -0.0868866
   1.2622386   0.2596330  -0.0666522  -0.0905759   0.3202730  -0.1865684
   0.2492207   0.7453504  -0.3228696   0.0701890   0.8059569  -0.0924040
   0.0484683  -0.3519608   0.3424484  -0.0440852  -0.1223855   0.0489557
  -0.2370676  -0.2144603  -0.0964567   0.1451401  -0.1184772   0.2032256
   0.1374155   0.1415202  -0.0196192  -0.0352436  -0.0391526  -0.4551437
   0.4839234   0.4865046  -0.2907671   0.4520602  -0.4437405  -0.7892295
   0.1086237   0.3049762   0.1001572   1.2090852   0.0922157   1.2097479
   0.1492799  -0.4388750  -0.2295239   0.0222431  -0.0629538  -0.6155168
   0.6939032  -0.4958007   0.9316501  -0.2051042  -0.0433457  -0.0715562
  -0.5267359   0.0023587   0.1779369   0.1720204  -0.1721288  -1.0651479
   0.0253213   0.1660262  -0.1525811  -0.0759826  -0.1981669  -0.0603436
  -0.2640382   0.1223347   0.4270208   0.0392178   0.0983989  -0.3411402
   0.9482954  -0.3935997  -0.9768488  -0.8867465   0.4450492  -0.4949127
  -0.1104161   0.2506886  -0.1965127  -0.3098821  -0.1032599   0.0455831
   0.7215396  -0.6420603   1.3017536   0.0934022  -0.0179465   0.0492438
   0.4588540   0.2031453  -0.0300312   0.0309522   0.1631903   0.2582193
  -0.9980577  -0.5442858   0.4348812  -0.0075024   0.1368578  -0.0617659
  -0.0926369   1.3034083   0.0314687   0.9831803  -0.5844742   1.1703552
  -0.3569616  -0.0322402  -0.0047935   0.1415260   0.0577926  -0.0548272
   0.1775249   0.1321134  -0.0248288   0.1828974  -0.1006689  -0.1913453
  -0.1655596  -0.3315139   0.0699547   0.1202289   0.3364876  -0.0113991
  -0.3908491   0.5722448   0.8554586  -1.1668239  -0.1943575   0.1541672
   0.4001744  -0.1276362  -0.5103932  -1.3356884   0.1943725   0.2360349
  -0.2143113   0.1220847   0.0856209  -0.0670341  -0.0869654  -0.2329305
  -1.3852953   0.5751401  -0.2945009   0.3043581   0.0433822  -0.0515248
  -0.4331105  -0.0523166   0.2643809   0.5905799  -0.7521094   0.4448270
  -0.0761200  -0.3035977   0.0073737  -0.2433603  -0.6384684  -0.0220410
  -1.5523466   0.3656986   1.6522914   0.4971102   0.6199899  -0.5581892
   0.5985717   0.7168037  -0.1428258   0.1716012   0.1912126  -0.1222322
  -0.0073193  -0.2353235   0.0394555  -0.0531661  -0.2459526  -0.2888717
   0.4634291   1.0243876   0.0247779  -0.1650838   0.0735367  -0.3016822
   0.3202146   0.1891852   0.0217553   0.1728525   0.4592239   0.3233723
  -1.2361466   0.5415329   1.3725636   0.3613730  -0.5162939   0.3342011
  -1.0181661  -1.1522102   0.5717454  -0.8444439   0.3781970  -0.5929573
   0.1829763  -0.3379645  -0.0370675  -0.1323094   0.0198960   0.0055964
  -0.5183276   0.6455307  -0.1431404   0.3210657   0.0989660  -0.0940242
  -0.0090898  -0.0156963   0.1820033   0.1432427  -0.0089408   0.0490382
  -1.8474127   0.0053609   0.2989040  -0.9609249  -0.9778078  -0.2743657
   0.0532659   0.1516485  -0.0921365  -0.5676596   0.2569528   0.6539001
   0.1084337   0.0623417   0.2807783  -0.2265329   0.2778026  -0.5022721
   0.2022091  -0.4149202  -1.0799589  -0.0078099   0.1161808   0.2451489
   0.2414970   0.0126051   0.1131436  -0.6311986  -0.1069120   0.1207616
  -0.6111545  -0.3388667  -0.0059751   0.0137610   0.1524075   0.0869150
  -0.7985788   1.0007498   0.1329505  -1.4600873   0.3472891   1.2052773
   1.2762290   1.1982671  -0.0769616  -0.0369255  -0.1122969   0.4741836
  -0.0251359  -0.3352787   0.0345554   0.1605429   0.3546879   0.0836483
  -1.0201979   0.4733338  -0.3572761   0.0752138   0.0865775  -0.1911625
   0.1084725   0.2761502   0.0259911   0.1509378  -0.1099905   0.0160518
  -0.1663298   0.6035380   0.7152970   0.1823735   0.0377626  -0.1364062
   1.0012887   0.4486279  -1.6919619  -0.6026498   1.1834927  -1.1979761
  -0.2389007   0.1062803  -0.0621988  -0.0268070   0.1013581  -0.1151999
  -0.0044956   0.1608368   0.2463246   0.1850803   0.2484375   0.0353499
  -0.4268792   0.0797182  -0.1602356  -0.1844588  -0.3804221   0.2527587
  -0.6765023   0.7202234   0.7461610   0.0096815  -1.5809400  -0.7191063
   0.1397607  -0.0776820  -0.1058469  -0.3158412   0.6177981   0.4750553
  -0.1740355   0.1140813   0.1064320   0.0542772  -0.0346988  -0.0598395
   1.2630352  -0.0349601  -0.8704276   0.0236897  -0.0618242  -0.0444762
  -0.2054213   0.0997932  -0.0801971  -0.5499657  -0.5595862  -0.0529607
   0.0196084  -0.2089922   0.0041110  -0.2911180   0.5041366   0.0226165
   0.4152730   0.3818477  -0.0296306  -0.1531232   0.0032033   0.0162164
  -0.4646916   0.6675398  -1.3914785   0.0813006   0.3205360   0.2480393
  -0.1516780  -0.2873492   0.0772785   0.2357679   0.1260206  -0.2044056
   0.3087343  -0.7729387   0.3839555  -0.1357127  -0.0812538   0.4548220
  -0.0760775   0.2628628  -0.2888805   0.0506625  -0.1029636  -0.0680264
   0.1029092   0.0205344   0.1046932  -0.0393645   0.3033961   0.3095393
   1.0865577   0.1609455  -1.6693976  -1.1070974   0.0988407  -0.7624698
   0.5092310  -0.1030048  -0.0027129  -0.0676981   0.2089559  -0.0429948
   0.0712321  -0.3618602   0.2033233   0.0370439  -0.0506643   0.3337669
  -0.0568913   0.0688762   0.2415683  -0.2396504  -0.2766043  -0.1846847
   0.7627936  -0.0716978   0.0859865   0.8047620  -0.4764492  -0.7283798
   0.3105442   0.0471608   0.0989862   0.4770616   0.5249279  -0.7911226
   0.0044990  -0.1405520   0.2869565   0.0334644  -0.1842153   0.3913576
   0.1642156   0.8199726  -0.1025412   0.0007524  -0.0770527   0.3765070
   0.2591017   0.2510115   0.2566442  -1.0857754   0.6478673  -0.2521911
   0.0901514   0.0854420  -0.0551449   0.0156001  -0.0074046  -0.1055684
   0.0922309   0.1823356   0.0104616   0.1205308  -0.2414652   0.0831776
  -0.5540903   0.1182028   0.2615744   0.1032186  -0.5070398  -0.6176545
  -0.0392362   0.0543170   0.0320656   0.0295138  -0.2317839   0.0470574
  -0.7192679  -0.2934769   0.4500729   0.2010811  -0.3426160  -0.3891052
  -0.0259966   0.2410936   0.3409736  -0.2469774  -0.0958318   0.4924238
  -0.0068822  -0.2385538   1.0642915   0.3423046   0.0626786   0.3189464
  -0.9266350   0.0610985   0.4735393  -0.1182545   1.2008731   0.2812142
  -0.0088184  -0.1168446   0.1160687  -0.0829015   0.2198273   0.1526704
  -0.2442719   0.3253178  -0.0869920   0.3018691   0.0385548   0.2128982
   0.0426825  -0.1273607   0.1532654  -0.2898658   0.0147706   0.0045196
   1.2589898  -1.3088712  -0.5019221  -0.1136117   0.2665904   0.5431765
  -0.0707312  -0.0426754  -0.1755334   0.1028630  -0.3402449   0.1578374
  -0.0416792   0.0692231   0.1641226   0.0542303  -0.3280723   0.3309651
   0.6159920  -0.0865805  -0.1237104  -0.3052568  -0.1734120  -0.0026495
  -0.2850311  -0.2231449   0.0572223   0.2787432  -0.8866642  -0.3100318
  -0.0930609  -0.4021453   0.0232592   0.2628513   0.0323760   0.4377568
  -0.0987990   0.1245545  -0.2916440  -0.5276692  -0.2516440   0.0090208
   0.4895213   0.7277972   0.4830003   0.5455823   0.8846770  -0.5864609
  -0.1042135   0.1225388  -0.0435945  -0.0111857   0.1923821  -0.0605246
   0.9003639   0.7728691   0.7681848  -0.0759094  -0.0988901   0.0498153
  -0.0471806  -0.1891783   0.2365532   0.1359531  -0.3335451  -0.0790478
   0.0647213   0.3404977   0.9241360   0.3883402  -0.1536042   0.1466370
   1.0845768   0.1830008  -0.5736500   0.4904675  -0.4892059  -0.4275217
   0.3970776  -0.1191260   0.1724555  -0.1306157  -0.1928258  -0.1054430
   0.4345034  -0.1391169   0.0846661   0.2459542  -0.2055724   0.2322436
   0.0095023  -0.1629495   0.3166524  -0.1221258   0.0236870   0.1847546
   0.6246219   0.2267778   1.2196336   0.0153106   0.8052242   0.1828552
   0.5095297   0.3207731  -0.3762630  -0.0246460   0.5230668   0.1958543
  -0.1849513   0.2589224  -0.2050558   0.2148654  -0.1367810   0.0072095
  -0.3518186   1.4041464  -0.4584848   0.1048699  -0.3572871  -0.2364755
   0.0627553   0.1338893  -0.1090837   0.3682801   0.6381469  -0.0492299
   0.0931811  -0.2667234   0.0149412  -0.2314072  -0.0593057  -0.0247903
  -0.0973202   0.2084304  -0.2140265  -0.0176286  -0.0233091   0.1698911
   0.0282901  -0.3056548   0.0629900  -0.0249188   1.8311228  -1.0669740
   0.1013388   0.1937006  -0.0491363  -0.0522046   0.1382138  -0.0860475
   0.6526710  -0.5364641  -0.6607194   0.3437755   0.6255040   0.7808397
   0.2678725  -0.1785835  -0.0890094  -0.0264310   0.2006417   0.2762848
   0.1173056  -0.1415535  -0.1125082   0.9789440   0.3582937   0.2232407
   0.3849570   0.0429710  -0.0476353   0.7862794   0.4339490  -0.1009750
  -1.0173326   0.9036862  -0.5250939   0.1679060   0.1096438   0.1421168
   0.2631443   0.3277949   0.8619567   1.2455628   1.4691728   0.8832178
   0.2559911   0.2732925   0.0841563   0.0030950   0.1542066  -0.0998360
  -2.3292100  -0.5528485   0.0989415  -0.7191237  -0.5069593  -0.4597762
   0.3321494  -0.0299325  -0.1642939   0.2575597   0.7492515   0.6932809
   0.2010253   0.0550751   0.2454940  -0.0050549  -0.0288521  -0.2508252
   0.3345064  -1.2430791  -0.8819681   0.1408582  -0.0395692  -0.2952255
  -0.0776242  -0.0963740  -0.1737183  -0.0448689   0.0733918   0.0345974
  -0.1529540   0.1735775  -0.0262921   1.3583492   0.8678462   0.9061639
  -0.0557254   0.3953460  -0.1201922  -0.2850545  -0.3374912   0.2553262
  -0.2858342   0.8108269   1.2008389   1.0428540  -0.2070874  -2.6461236
  -0.4889017   0.1362053  -0.1143125   0.0238649   0.2224948  -0.1966994
   0.0404158   0.0813054   0.2891410   0.0454261  -0.1143496   0.1195403
  -0.1589719   0.1975552  -0.3577914   0.0750783   0.2773112  -0.1646040
   0.5826847  -0.6222791   1.1586776   0.1531064  -2.1795406  -0.3685671
   0.0049304   0.1665807   0.3246148  -0.0362668  -0.1003180  -0.1197895
  -0.0291475  -0.0408862   0.0160734  -0.0258773   0.5007570  -0.3858775
   0.2154820  -0.0729942   0.0033535  -0.3468204   0.0492210   0.2302342
  -2.1850629  -0.4175663  -0.5432152  -0.9079231  -0.5470960   1.3679372
   0.0705618  -0.3648949   0.1793752   1.0237252   0.2495729   0.4181370
  -0.3723166  -0.0583816  -0.2033214   0.1855775  -0.3229323  -0.5910116
  -1.0517361  -0.1764052   0.8763877  -0.0250499  -0.0134919   0.0810278
   0.1459286  -0.0441220   0.0345320  -0.2741644  -0.0287777   0.4110054
   0.1949483  -0.1957314  -0.0551475   0.0907232  -0.3574141  -0.3323147
   0.2797810   0.8073900  -0.1157721   0.8338267  -0.2174979  -0.5502872
  -0.2920397  -0.4724230   1.4185928  -0.1649695  -0.1280466  -0.2071301
   0.1268984  -0.2850754  -0.1375565  -0.0509798   0.0273300   0.2938578
  -1.3020536  -0.0809928  -0.0995333  -0.0946937   0.1167489   0.4777792
  -0.0664641  -0.0028271   0.1962494   0.0091840  -0.3026636  -0.0230184
   0.2643149  -0.2064587   0.4573679   0.1767901  -0.2322986  -0.1083592
  -0.1935598  -1.0728011   0.0030877   1.2996016   0.3929325  -0.8763738
  -0.0834721  -0.1323130   0.1571456  -0.0745751   0.1298137  -0.0371592
   0.0682533  -0.0119781   0.0829232   0.0643210  -0.5506404   0.1594655
  -0.1901869  -0.0850770   0.0860332   0.0127370  -0.1000424   0.0201522
   0.4116217  -0.0009336   1.0485629  -0.1843994  -0.2655184   0.5403087
   0.2432827   0.0008607   0.2326755   0.1407824   0.5550216   0.5255946
   0.1262939  -0.3163216   0.0596894   0.2539192   0.1712333  -0.1598529
  -0.2454846  -0.2690357  -1.2103037  -0.2554121  -0.1851352  -0.1169166
  -0.1597205  -0.4111255   0.2226891   0.4296308  -1.3736876   0.4439693
   0.5435925   0.0395754   0.0453586  -0.0910476  -0.1023938  -0.3490611
  -0.3057886   0.4915158   0.6106552   2.0262876  -0.8104256   2.2289672
   0.9560848  -1.8620816   0.0409560   0.0878860   0.1423647  -0.0214180
  -0.3345987   0.3765066  -0.0224690   0.2144669  -0.0220727  -0.2687301
  -0.7168233  -0.2846488   0.3117988   0.0632090   0.0146191   0.0676069
  -0.2329784   0.0814450   0.4936508  -0.2825398   0.0056397   0.4001718
   0.8045527   1.3314868  -0.2472042  -0.1683192   0.0513236   0.0506665
  -0.0320258   0.7985809  -0.0703591   0.5110019   2.2068489  -0.3066565
  -0.3432850   0.1406932  -0.0305852  -0.1587196   0.1565111   0.0176718
  -0.0185405   0.4019762  -0.1353178   0.0557560   0.0922553  -0.0087026
  -0.0019999   0.0471292  -0.2323094   0.1806517   0.0919676   0.2212590
   0.5534209   0.1258138  -0.9020887  -0.3561619  -0.3034722   0.4940534
  -0.3513424   0.2510092   0.1126416  -0.3599164   0.1778893   0.4429855
  -0.1864259   0.0023009   0.0630833   0.1576163   0.1330927  -0.2554616
   0.9183704   0.2174259   0.2517924  -0.0216885  -0.2240667  -0.0638506
  -0.3211000  -0.1828087  -0.3036031  -0.3393074   0.8564782  -0.9642279
  -0.1953788   0.0375765  -0.3216984  -0.0922419   0.2145342  -0.0613242
   0.3750333  -0.0358795   0.4076141  -0.4766381   0.3370501   0.3361790
  -0.6056497   1.2976768   0.3888464  -0.0609631  -0.0128023  -0.2033160
  -0.0866846   0.0022374   0.3830776  -0.2598060   0.2492839  -0.1135808
   0.3408779   0.8746011  -0.2512427  -0.3132234   0.0767394  -0.1329382
  -0.1596679   0.0323495  -0.1985102  -0.7019889   0.3471578  -0.0677227
   1.4195092   1.0222586  -1.2519723   0.1329436  -0.1450707   0.2863112
  -0.3559115   0.5245031  -0.6798959  -0.3168944   0.2198596  -0.4112044
  -0.3598757   0.0433668   0.0333206   0.0855317   0.1752267  -0.0184640
   0.1670145   0.2535146   0.0951204   0.3332824  -0.1687486   0.1344202
   0.0639540   0.1249711   0.0690308  -0.2404889  -0.2397672   0.1532566
  -0.6220228   0.5158976   0.1576716  -0.3274043  -1.5037384  -0.0141505
   0.0016666  -0.2999229   0.2571274   0.1587062  -0.9877352   0.5626286
  -0.3222068  -0.6595048   0.0860171  -0.0650327  -0.1018771  -0.2214845
   0.0958341   2.0319757   0.3000462  -0.1081326   0.3329787  -0.2522293
  -0.0900441   0.1972690   0.0087785   1.3176330  -1.3423791  -0.5835675
  -0.0952545   0.1233817   0.1791685   0.2961500   0.3007329  -0.1134180
  -0.0720274   0.2105403   0.1792141   0.3267233   0.0040996   0.0097378
   0.0778381  -0.7673442   0.8992921  -0.3503956   0.8402039   1.4284395
   0.1294121  -0.2584331  -0.0164489  -0.2452576  -0.0627449   0.1558909
  -0.0527116   0.6618109  -0.2691428  -0.0477184   0.3352181  -0.3017494
   0.2638717  -0.2522222  -0.0468440  -0.2534349  -0.1659765  -0.2786451
  -0.8687540   1.1908185   0.4035674   0.0298314   0.0406268   0.0400804
  -0.2101730   0.8705562  -0.9034926   0.7451311  -1.5684849   0.5942373
  -0.2965398  -0.3916695   0.2910815  -0.0451665   0.1277500   0.0509129
  -0.0399530  -0.2594650   0.0468305  -0.1356051   0.0162097   0.1480336
  -0.0122823   0.0134122   0.0042412   0.1081882  -0.0289944  -0.1338191
   0.5953304  -0.8739600  -2.1801798  -0.7460760  -0.8069641   0.2948785
  -0.1857817   0.2093724   0.0616930  -0.5949970  -0.5992307   0.3854904
  -0.1511694   0.1068475   0.0400458   0.1211866  -0.0867761  -0.0496050
   0.9016612   0.1275780  -0.3552429   0.1802501  -0.1027888  -0.2425113
   0.0363517  -0.1367002   0.2869224   0.6623145   0.5572695   0.2749465
  -0.1840971   0.3071954   0.1295840  -0.1151649  -0.2896183  -0.5789455
   0.1235312   0.1484950   0.0700676   0.1379740  -0.0083592  -0.1651199
   1.2003428  -1.3394294   0.7012414   1.4857101   0.9475519  -0.7325703
  -0.0694137  -0.3045375  -0.0642939   0.3381725  -0.0412319   0.1265831
   0.7624579   0.4283608   0.2482398  -0.2735047   0.0216884   0.2428552
  -0.0772803  -0.0662315  -0.2286585  -0.3121077   0.0405500  -0.0909655
   0.0020417   0.5328739  -1.3924762   0.0441971   0.3225237  -0.0434704
   0.3897161  -0.9032276   1.1917523   0.1725667   1.5027474   0.9945065
  -0.0486414   0.4404939   0.3429314   0.1060613   0.1153928  -0.0579222
  -0.4128866  -0.2155542   0.1203927  -0.0062538   0.1937252   0.0029748
  -0.3528009  -0.2206538   0.1144104  -0.0528593  -0.0664225  -0.0158297
  -1.1352274   0.6960119   0.5393819   0.1667546   0.3143410  -1.1377970
  -0.2676577   0.1670722   0.1006145   0.0453735  -0.4254130   0.6821949
  -0.0350849   0.1239104  -0.0612753   0.2702463  -0.0321204   0.1505987
   0.0147155   0.0136890  -0.8850340  -0.1040581  -0.0797896   0.1351148
   0.2730535   0.1153147   0.0372546  -0.1702578   0.0660313  -0.6623877
   0.0488558   0.0095667  -0.0634667   0.0681900  -0.2213293  -0.4081531
   1.8919154  -0.1917149   0.0182176  -0.9920154   0.7033439   1.4986458
   0.8439783   1.3486120  -0.0832722  -0.3829168  -0.0066430  -0.1902467
  -0.0348631   0.1472483   0.0983762   0.0387887   0.2511781  -0.2480975
  -0.4913053   0.3719632   0.1659355  -0.1289380  -0.4393908  -0.1155958
   0.0867474  -0.0959770   0.0869388   0.1532016  -0.0819293  -0.1257391
   1.1445322  -0.5546761  -0.6183356   0.0793799   0.1245441   0.2376521
   0.8376962   0.6279671   0.2200017  -0.9345614  -0.3800163   0.5477030
   0.2614437   0.0439009  -0.4535123  -0.0770010  -0.1305189  -0.0797956
   0.1108976   0.0889193   0.1446979  -0.1191462   0.1856739  -0.1531751
   0.2403104  -0.1424428   0.1217068  -0.2334281  -0.0345594   0.1186472
   0.1323029   0.1473099  -1.0261797   0.1499522   0.3319318  -0.7754024
  -0.0148488  -0.0370228  -0.2733092  -0.9975205  -1.3055069   0.6719673
  -0.0061271   0.1076169   0.1517083  -0.2872366   0.1290683  -0.0328542
   0.4907618   0.3670940   0.5279897   0.2895637   0.3894907  -0.0333570
   0.1218094  -0.1058839   0.1881785  -1.7611873  -0.4973654  -0.4230853
  -0.3572610  -0.1285402  -0.4041646  -0.1606170   0.0846499  -0.1864327
  -1.0437971  -0.2611342   0.5410968   0.1086213   1.1313434   0.7139223
  -0.8222015   1.2424771   0.5493294  -0.1484293   0.2960491  -0.2820882
   0.0793371  -0.3012294  -0.0143672  -0.0677479  -0.6752809  -0.0222744
  -0.7088818   0.5106633  -0.8693331  -0.1313575  -0.1229951   0.0287691
  -0.1879487   0.0171215  -0.3073643   0.1364060  -0.0062379   0.4338435
  -0.7175009   0.2480607  -0.5690712   0.7500920  -0.0124998  -0.2234681
   0.0325825  -0.5522119   0.1295846  -0.2843447   1.0754446  -0.2426179
  -0.0141457  -0.1874081   0.1629837   0.0096547  -0.1395672   0.0373165
   0.2809295   0.0821762   0.2055751  -0.0409278  -0.2145486  -0.1071458
  -0.1731107   0.0870167  -0.4381154  -0.5350989   0.0677032  -0.0234536
  -0.3413501  -0.5007530   0.1799391  -0.4907525  -0.3852100  -0.2214458
   0.0184746   0.2136193  -0.2303589   0.8274416   1.6075990  -0.1098451
  -0.3687758   0.0160409   0.1125095  -0.0967806   0.2095051   0.0464632
  -0.5251575  -0.4144220  -0.2096609   0.2420346  -0.0069606  -0.1338304
   0.3825709   0.2342688   0.1603393  -0.5660994  -1.0284503   0.2256961
   0.0483003  -0.0683021   0.1324371   0.1826448   0.4335555   0.2820485
  -0.1887478  -0.1098503  -0.1125530   0.2649151  -0.3556381  -0.0706257
  -0.2804841  -0.2926863  -0.8281983   0.0640065   0.2992027   0.2267408
  -0.5002505   0.2166095  -0.1079830  -0.1333882   0.0030806   0.1686845
  -0.4964963  -0.3653452  -1.5040668   0.2617908   0.1512935   0.2724675
  -0.1231660   0.3613671  -0.4260935  -0.3025357  -0.1294736  -0.0789606
   0.3874944   0.1445151   0.8271358  -0.3406802  -0.0815775  -0.0244890
   1.3300716   0.3820816  -0.3629470  -0.0749773  -0.3091064   0.2605212
   0.1467256   0.0100899  -0.5205814  -0.0376440  -0.1964189   0.0536282
   0.0938782  -0.3328481   0.1079360  -0.5909393   0.1359393   0.0726581
   0.2352225  -0.0107119   0.0264861  -0.0547179   0.1128859  -0.0909423
   0.7322558   0.5632833  -0.4517844   0.1791806  -0.2342162   1.6561637
   0.1175843   0.0829777   0.0636774  -0.4828867  -0.2936009   0.6149473
   0.1145770  -0.0104254   0.0627826   0.1182797   0.0276228  -0.0582655
   0.2011562  -0.4799592  -0.4728016  -0.1096292   0.0343755   0.3054938
  -0.1007795  -0.1285271   0.0545952   1.4108688   2.0879793   1.0532643
  -0.2040216  -0.3617598  -0.0148035  -0.5549048   0.6396031  -1.1200117
   0.1305138  -0.0073158  -0.0238170   0.1390667   0.1149085  -0.0621792
  -1.2036134  -0.7008681   0.9430913  -1.2580425   0.0546960  -0.2924248
   0.0140259   0.2290453   0.1135483  -0.2765785   0.5336367  -0.2479539
   0.0153020  -0.0115699  -0.0396932   0.0616577  -0.3326113  -0.0027276
  -1.8452814  -0.2544834  -0.1804854  -0.0037690  -0.1336131   0.3469396
   0.8904465  -0.1296644  -0.3934261  -0.1373059  -0.2332367  -1.0591881
   0.0523908   0.1541630   0.0786950   0.0993601   0.0687906   0.1975740
   0.0132631  -0.4135136  -0.1291479  -0.1183280  -0.1803675   0.0252158
  -0.1867114  -0.2377115  -0.2229921  -0.1665279   0.1093412   0.0245932
   0.6605889   0.3080058  -0.8796443   0.5522909   0.6893200   0.0775751
  -0.2811182  -0.0953809   0.2140622  -0.5708138   1.2938778  -0.1191887
  -0.1402035   0.3788783   0.2015423   0.1606432   0.0856360  -0.0680778
  -0.7294170  -1.3080068   1.1713969   0.4644292  -0.1281378   0.0879069
   0.0579521   0.2568227   0.3302545  -0.5121141   0.0891508   0.6971830
  -0.2358629   0.2752584   0.0472856  -0.1124634   0.2859674   0.0539182
   0.3494570   0.8794983  -0.9202060   1.0264591   0.2914730  -1.5115622
  -0.3227215   0.4893586  -0.2673314  -0.1228393  -0.5503091   0.0065324
   0.1997272   0.0275709  -0.1213734   0.0866200   0.1676845  -0.0165341
   0.5524636   1.1293536  -0.0089194   0.2223709  -0.1085369   0.6792910
  -0.2239732   0.0121393   0.0574115   0.0207256   0.3264726  -0.3398364
   0.9734017  -2.4254336   0.4668981  -0.4253781  -0.0047592   0.0271689
   1.2473203  -0.5447170   0.8939667  -0.5745887   1.1135893  -0.2921880
  -0.1921802   0.0076971   0.0994987  -0.1803058   0.0434535   0.2053830
  -0.1175065  -0.0281795  -0.4979406  -0.1630087  -0.3511778   0.0972603
  -0.0624827  -0.3385347  -0.1372769  -0.0954029  -0.2005005   0.2465312
  -1.0269504   0.4349116   0.2277655   0.0873731   0.4749705  -0.4093240
  -0.1785187   0.0766023  -0.0355789  -0.5675019   0.6386065   0.9519566
  -0.0036646   0.1318234  -0.0891225   0.2809541   0.1864782  -0.0943533
   0.5987618   0.2127562  -0.8468594   0.2814974   0.1620781  -0.0058650
   0.4138639  -0.3754829   0.2941783  -0.1959486  -0.8536943  -1.2698315
  -0.4373240   0.2045878   0.0148270  -0.0262496   0.0950697   0.1080221
  -0.8617504  -1.0181738   0.4887173   0.1830583  -0.0876574   0.1932539
   1.1624649  -1.0929124   0.3937947   0.1656021   0.2503717   0.1785709
  -0.0645318   0.0741594   0.0842438   0.0101718  -0.1295704  -0.0409899
  -0.5977297   0.1245206  -0.0643029  -0.1949169  -0.2410716  -0.3353959
  -0.0439693   0.1777037   0.2014443   0.3054035  -0.4136538   0.0093241
   0.6749870  -0.0480540   0.0801819  -0.0399198   0.1110256  -0.1075197
   1.4889771  -0.7026394  -1.0447717   0.2805829  -1.2060436   0.4293545
   0.1283559   0.2615103  -0.0305148   0.1784249  -0.0031710   0.1851595
  -0.1139056  -0.4820550  -0.0270103  -0.3679586  -0.2191753  -0.2369376
   0.2695065  -0.0525482  -0.0261864  -0.0735475   0.2438477   0.3686092
  -0.3414937  -0.3374515  -0.0736419  -0.8353649   0.1277980  -0.9541899
  -0.0117831   0.0993453  -0.0791963   0.1647492   0.5332344   0.5397325
  -0.2628085   0.3429900   0.1474340   0.2517313  -0.1701576   0.2011516
  -0.0005881   0.4884623   0.0392772   0.4736571  -0.0577429  -0.3306363
   0.0388719   0.1833873  -0.2806858   1.2802365   0.4981207   0.0595323
   0.0712005  -0.0074939   0.0413875   0.3405490  -0.5357308   0.1469667
   0.3777454   0.0666581   0.2337849   0.0385845   0.1076331  -0.3120609
  -0.1108103  -0.1372213   0.0998908  -0.5502338   0.2497267   0.3826085
  -0.1251160   0.0460235  -0.2066352  -0.2462876   0.1785956   0.2010075
  -0.0776395  -0.8301238   0.3770677  -1.0092633  -0.4553625  -0.5463745
   0.2429520   0.2498239  -0.1543395   0.5554530   0.0716775  -0.1107171
   0.0393266   0.0545429   0.0188362  -1.6872002   0.0790048   1.4681525
  -0.1214970  -0.0417536  -0.2412574   0.7325556  -0.5670160   0.2170948
   1.3745812   0.9975000  -0.5248415  -0.0207835   0.1096178  -0.1441985
   0.0148377   0.0031780   0.0384328  -0.3950109   0.1365430  -0.0867465
  -0.0372127   0.0022238  -0.0914418  -0.1375616  -0.0579877   0.1200902
   0.1517189   0.2070449  -0.2139728  -1.3122425  -1.4327533   0.2056458
  -0.4688191  -0.5955938   0.2282230  -0.0035560   0.3371239   0.5601777
   1.1751775   0.5710021  -0.3690087  -0.0948172  -0.1900364   0.0389788
   0.2467303   0.1342905  -0.0519286   0.2378437   0.0407435  -0.5746014
  -0.1124614  -0.0575290   0.0088523   0.1187187   0.1674370  -0.0963012
  -0.3809718  -0.8284589  -0.2421024  -0.3399216  -0.1169696   0.0851392
   0.1736543   1.0913492  -0.0309237  -0.0750609   0.1414739  -0.1478139
  -0.1307946  -0.2441226   0.3595350   0.0525987   0.1959756  -0.7975321
   0.5204855  -0.0609792   1.3503652   0.2983868   0.4860309  -0.1001012
  -0.1698043  -0.0266931  -0.2310688   0.1568494  -0.0969094  -0.3031841
   0.1209428   0.2281920  -0.2056604   0.1099473  -0.0751377  -0.9552729
  -0.0754678  -0.2729623  -0.4122961   0.0401576   0.9167849   0.1266146
  -0.6082861   0.1797302   0.7259324   0.0691766   0.3432637  -0.0525111
   0.0398241   0.1188051   0.1203056   0.2389046   0.2003830   0.4170607
  -0.0037609  -0.0836032  -0.2832762  -0.1609417   0.1686860  -0.2422919
   0.1047436   0.1904293   0.0250769  -0.6142752  -0.1421284   0.5609871
   0.0888813   0.3006463  -0.6291279  -0.3324750   0.4111142  -0.2082703
   0.4517562   0.3582519   0.9857718  -0.1127296   0.3007329  -0.0139579
   0.1587541  -0.4445472   0.2651502  -1.0787992  -0.4881933  -1.3323063
   0.2103907  -0.2730401   0.2207863  -0.0290647   0.2030486   0.0660516
  -0.7443900  -0.6133481  -1.1496291   0.0068358  -0.0435293   0.3098626
   0.6271343   0.3761818   0.2772798   0.0474383   0.0374705  -0.1183050
  -0.2994048   0.3638665  -0.1716522   0.1910898  -0.4275228   0.8050420
   0.3945913  -0.9717903   1.0561548   0.0935555  -0.1324757  -0.1778415
  -0.4280731  -0.4472939  -0.1566801  -0.0470627   1.1083146  -0.2150558
  -0.1888308  -0.1131466  -0.1960634  -0.3527407  -0.1305846  -0.1058029
  -0.0951503  -0.4045134   0.1847333  -0.0124334   0.1377631   0.5559419
   0.2426128   0.2397714  -0.0517070   0.2320931  -0.6720712  -0.1928601
   1.0135710  -0.2040725   0.9484569  -0.1321259   0.0384320  -0.1524047
  -0.0424696  -0.1868132   0.1005547   0.0872878  -0.1003750   0.3010021
  -0.3177287   0.1285347  -0.2746111  -0.0718606  -0.2234962   0.0014878
   0.0899160   0.1161295   0.5749065   0.8416751  -0.1428514  -0.0887625
   1.7666711   0.1026603  -0.4604436  -0.3074624  -0.3782880  -0.1226638
   0.1433723   0.5015787  -0.5339455  -0.1700298   0.1589211  -0.0315976
   0.0782375   0.1469109  -0.3620640  -0.8133985   0.7030825  -0.8031360
  -0.1250717   0.1054075  -0.1521873   0.1302682  -0.1707232   0.2156090
   1.0236593  -0.9729505  -0.7416849  -0.0294968   0.0681600  -0.0239184
   0.1006940  -0.0621284   0.2190793  -0.9837370   1.1295232   0.7350597
  -0.1947704  -0.6755047  -1.0220442  -0.3680677  -0.3838489  -0.9516773
  -0.2399161   0.1503541   0.2035443   0.2292571   0.1137273   0.0031192
   0.0968949  -0.0689107   0.4771104  -0.2695321  -0.3998236  -0.4715488
   0.0192809  -0.0677736  -0.2370729   0.1121652   0.1401910  -0.1052946
  -0.3137164  -0.1709973  -0.0092986   0.8503696   0.2470378   0.3260519
  -0.0854222   0.1944662  -0.0254170   1.4360691   1.3020656  -0.6192040
   0.2779284  -0.4754623  -1.8139158  -0.3364055  -0.0685868  -0.2022032
   0.0130362   0.1225123   0.1262579  -0.2094770   0.2834391  -0.0724188
   0.0267724   0.2726113   0.0705864   0.1054418   0.0786567  -0.5423923
  -0.1451444   0.2958582   0.1380381   0.1368492   0.1852079  -0.6550211
   2.2564096   0.1453202   0.4819727  -0.0663495   0.1421221   0.0877433
   0.1432323   0.2111263   0.4330199  -0.0189494  -0.2773939   0.3078285
  -0.1898701  -0.2041782   0.4344654   0.5865698   0.4648946  -0.1214431
  -0.2292585  -0.0818234   0.1215105   0.2389614   0.0532684   0.0404158
   0.9261152   0.5461347  -1.6243525   0.4418410  -0.4406182  -0.2569104
   0.0991820  -0.1270917  -0.4099415   0.1774912  -0.1133067  -0.8655730
   0.7824690  -1.0334736   0.8074205  -0.1075203  -1.0903152  -0.0299970
  -0.3218599   0.4034134   0.2455717  -0.2549180   0.1920452   0.0725117
  -0.2450810  -0.0127659  -0.2193820   1.1979373  -0.3978881   0.9755579
   0.4313399  -0.2216949   0.1594039   0.2037675  -0.1238848   0.0217601
  -0.3129343  -0.4317608  -0.5526574   1.3248557   0.2293078   0.0181156
   0.1695017  -0.0736626   0.0281292   0.4722726  -0.0645626   0.6144611
   1.1823587   0.2709949  -0.2432612  -0.0851157  -0.2431359   0.0708077
  -0.1938974  -0.0155454   0.1309151  -0.1203078  -0.1198637  -0.1484917
  -0.2342615   0.1530929  -0.2332810  -0.0747402  -0.0848438  -0.3196973
  -0.1741897  -0.2686533  -0.1176258  -0.5186521  -0.9379181  -0.5966052
  -0.2123856   0.5531690  -1.5163139   0.3654322   0.0059220  -0.4169984
   0.3016258  -1.1956788  -0.1515084  -0.0919278   0.0186256  -0.1700780
   0.0042444   0.0861488   0.0117898   0.1380011   1.4501979   1.4845794
  -0.2322678   0.1117681   0.2780837  -0.0022644   0.2847151   0.0182165
  -0.4623498  -0.4440704  -0.9947593   0.1175061   0.1150685   0.2079725
  -0.1510879  -0.1347642   0.2300095   0.1162831  -0.1344936  -0.1244923
   0.1217532   0.3114631   0.2826437  -0.2248488   0.2921743  -0.0348762
   0.6767064   0.2154843  -0.4773555   0.1216140  -0.3512869  -0.0762629
  -0.2432074  -0.0408544   0.2673950  -0.1185053   0.7626897  -0.5051574
   0.7041063  -1.0106574   0.2087762  -0.1745445  -0.0784743  -0.0718501
  -0.1140264   0.1449941  -0.0737325   0.3516757   0.2099093   0.0225859
  -1.0011994   0.1029465  -1.0579755  -0.0834480  -0.0647367  -0.5328856
  -0.3054780  -0.6700419  -0.5575413  -0.0260064   0.4482711  -0.6997467
  -0.0419959   0.0684404  -0.0695276  -0.0435786   0.1023919  -0.0624340
   0.0419231  -0.0866315   0.2217231   0.1221260  -0.1028774  -0.3791646
   0.0855243   0.2186444  -0.0030496  -0.3607613   0.2098038   0.1455282
   1.8993454   0.8442823   1.4134637   1.6951395  -0.3137741   1.0555421
   0.3409094   0.0924403   0.1169216  -0.3072124  -0.9489361   1.2340045
  -0.1413795  -0.1969776  -0.3263801  -0.2994214   0.1714023  -0.0713418
   1.3420935   0.1957932  -1.7595311  -0.0568995  -0.0502899  -0.0220834
   0.2685358  -0.1642543   0.0527928  -0.2982857  -0.4399657   1.1074511
   0.0582796   0.0372047   0.0356487  -0.2293549  -0.2633341   0.1615670
   0.1337661  -0.2481649  -0.0868918   0.1257899  -0.1556426   0.0550851
   0.1628824   0.8189379  -0.1377689  -0.7511252   0.7077749   1.5438097
  -0.1684137   0.2710941   0.1548504  -0.1018416  -0.3223251  -0.2036496
   0.0919231   0.1682549  -0.1370551   0.2576317   0.1753397  -0.0662416
  -0.6758127   0.4122167   0.1795949   0.2923143  -0.3091461   0.3542913
  -0.0179919   0.9534967   0.1887063   0.3463024   0.2411649   0.4509665
  -0.1285014   0.1046670  -0.1412162  -0.0863337  -0.1969728   0.0659560
   0.0329346  -0.0277696  -0.1572318   0.1897492  -0.1152098   0.0034358
   0.0442180  -0.1801185   0.1599537   0.2045708  -0.0759019  -0.4142810
  -0.9914898   0.2540566   2.0156963  -0.3253193   0.0795332   0.1442567
   0.1547021  -0.5221211  -0.0747309   0.0200312   0.0397269   1.1678129
  -0.3875653   0.0020251   0.0682555   0.0924429   0.2053038  -0.1764857
  -0.5476642  -0.5531507  -0.1980219   0.0406449  -0.1137132  -0.3046227
   0.1220022   0.0267187  -0.1574646  -1.1138182   1.4422932   0.0051336
   0.3016920   0.2742259   0.0203217  -0.1695761  -0.2619952   0.1413132
   0.2536663  -0.1151920  -0.0506472   0.2230403   0.2316964   0.1032829
  -1.1187260  -0.1285400  -0.8054644  -0.6146235  -0.4514896   0.5099930
  -0.1295606   0.3521042   0.0411781   0.1173090  -0.1202121   0.1329026
  -1.2295781  -1.3371303  -0.1029555  -0.2969295   0.0642500   0.0917021
  -0.2658707   0.1248286  -0.0889582   0.1539725   0.3578573  -0.0422504
  -0.5291303  -0.1840383   0.0162335   0.3541618   0.1807468  -0.1979005
  -0.3174399  -0.3865156   0.6227683  -0.6005981   1.8503705   0.0262961
  -0.0852330  -0.3839997   0.4153563  -0.0650593   0.1439938  -0.0369033
   0.2149111  -0.3493331  -0.1102724   0.1769260  -0.0155252   0.0437818
   0.3289925  -0.1451383  -0.1944742   0.0255942   0.4488691   0.1509630
   1.3247472   1.1317059   0.2392873   0.6093302  -0.6477270  -0.6360302
  -0.2455005  -0.2042489  -0.2680710  -0.7096311   0.3920018  -0.4404903
  -0.0413742   0.1904124   0.1001063  -0.1040209  -0.4104811   0.2714715
  -0.1401561   1.9481877   0.4031709   0.4030601   0.1065368  -0.0481128
   0.2058998  -0.0300484   0.0345405   0.7348615   1.3005223   0.3116519
  -0.4015806   0.1348635   0.0461352  -0.0087012  -0.1174964   0.3988411
   0.0957384   0.1743744  -0.3440815   0.0567287   0.3417212   0.0339444
   0.0271673   0.1933909  -0.6484742   0.3510942  -0.0879352  -0.6939260
  -0.2427302   0.1808156   0.1296295  -0.5615359  -0.1379289   0.0078362
  -0.7402967   0.7607450  -0.6010296  -0.0115908   0.0572851   0.0714911
   0.0257090   0.1015569  -0.2511620   0.0231516  -0.3551443   0.1844433
   0.7564241   0.0065233   0.8470324  -0.2309378   0.1815544  -0.1787391
  -0.2831321  -0.1760215  -0.1341524   0.2239338   0.8664657   0.1019792
   0.3403454   0.0603172  -0.1613768   0.1934448  -0.5383834  -0.4684651
   0.1420095  -0.0542004  -0.0606452   0.0647547   0.3303883   0.0068708
  -0.0616358  -0.1507246  -0.4712056  -0.0600779  -0.0497099   0.0440788
   0.2310382   0.2463222   0.0446015  -0.1840588  -0.2101398  -0.0067947
   0.3981382  -0.2802123   0.0399258  -0.2293525   0.3848626   0.0766034
  -0.0103478  -0.0673385  -0.2268152  -0.0538847   0.0779733   0.2707098
   0.0123378  -0.2144063  -0.1600191  -0.1518162   0.0396929  -0.0173073
   0.2913548   0.1941816  -0.1064427  -0.1336445  -0.3696122  -0.2672318
   0.2536437   0.2234683   0.1138019  -0.1494255  -0.2115709   0.1984401
  -0.3244847  -0.1248966  -0.4358562   0.0314386   0.4026584  -0.0394434
   0.0826759  -0.2188876  -0.0271331  -0.0028388   0.2607255  -0.1562550
   0.1688702   0.1716120  -0.0920201  -0.2130612  -0.0311753  -0.1432507
  -0.0175522   0.0533357  -0.0665847   0.1379858   0.1743109  -0.1295941
  -0.7964389  -0.3144538   0.6499981   1.1337619  -1.0451030   0.4362364
  -1.3636748   0.6240192  -1.0302277   0.7480098  -1.1824552   0.5076762
   0.7564238  -0.4359688  -1.3255394  -0.7602330   0.9771808   0.5867789
  -0.3363887  -0.1939338   0.0779990   1.7851241   1.0415475   2.3500631
   0.8481450  -0.4300392   0.0793956  -0.2352012   0.1517501  -0.0054304
  -0.1203752  -0.1506476  -0.0140377  -0.1421461  -0.2402565   0.7055638
  -1.0116847   1.4948288   0.6651875  -0.4169876   0.0736000  -0.5205973
   0.2162108  -0.7944731  -0.7397848   0.4406526   1.1185622   2.1558697
  -0.5034925  -0.3665884   0.7645110  -0.1894560   1.2187018   0.3550303
  -0.7199718  -0.7103723  -0.2865024  -0.1290525  -0.0001832   0.6340269
   1.0105286   0.6626403   0.8625591  -0.1253944   0.9179402  -0.7018110
  -1.4709363   0.7946343   0.3781606  -0.6736471   0.1409017   0.5769363
  -0.0935797   0.0284073  -0.0531266   0.0321471  -0.0408375  -0.2674112
  -0.1589846   0.1229563   0.0580134  -0.0520636   0.1097711  -0.3372911
  -0.0545817  -0.0983737   0.1205584   0.0007818  -0.0685870   0.2058065
   0.2196175   0.1560895  -0.0155945  -0.0587127   0.2090312  -0.0247791
   0.0239472  -0.0826844   0.2397433   0.4611785   0.1714793   0.1594212
   0.0134430  -0.0149862   0.1360362  -0.2090417  -0.0418856   0.0228463
   0.2831957  -0.0715670  -0.0465977  -0.0458527  -0.0046016  -0.2227106
  -0.0688059  -0.0793872  -0.0079774  -0.0178828   0.0259781  -0.0652874
   0.0347163   0.0322058   0.1477965   0.0205848  -0.1844561  -0.2296543
  -0.0567304  -0.1571329  -0.2507679   0.3862572  -0.0652609  -0.1077709
   0.0335559   0.1643042   0.0174324  -0.0537239  -0.0022423  -0.1798882
  -0.1088984  -0.0804774  -0.0947127   0.0587663   0.0379948  -0.1583325
  -0.1115654   0.1089258  -0.0022324   0.1103920   0.2241061  -0.1212945
  -0.2036717   0.0428728  -0.2781807   0.1028335  -0.1701462  -0.0537329
  -0.0558678   0.1722278  -0.0019944   0.0971823   0.1037285  -0.2643975
  -0.0577084  -0.1472824   0.0047275   0.1296160  -0.1374540  -0.0864793
   0.1716608   0.1707805  -0.1513298  -0.1923829  -0.3290907  -0.0979831
  -0.1490017  -0.0544738  -0.1464770   0.0484258  -0.2389784  -0.0370503
  -0.1488339   0.0277848  -0.0207011  -0.0571443  -0.0614628   0.0578724
   0.0572620   0.0131666   0.0367409  -0.2875173  -0.0304848   0.0295794
  -0.9630256   0.0755333   0.3120251  -0.0944367  -0.4092470  -1.3628174
  -0.0396564  -0.1430065   0.0844208  -0.0617886  -0.7227481   0.5568728
   0.5369941  -1.0927798   1.6155634   0.2064679  -0.1204574   0.3528778
  -0.7502452   0.1590924  -0.4111555   0.7865443   1.1312296  -0.5038944
   0.1624814  -0.1131776  -0.2633376   0.4066090  -0.1121787  -0.2005276
   0.8150720  -0.8137542  -1.4005543   0.0050533   0.2321525  -0.1727258
  -0.3443425  -2.2062607   0.0484352   0.4483869  -1.6810199  -0.6450331
  -0.1635075  -0.0014406   0.3064609   0.0315077   0.8622132  -0.2189487
  -0.6747119   0.5227626  -1.1470709  -0.0982560   0.0228759  -0.0511730
  -1.1232822   0.0196772   1.1451731   0.4623050   0.5101583   0.9518841
   0.0971237  -0.2375838  -0.1604884   0.1873627  -0.8416922  -1.2109802
   0.2516278  -0.7027891  -1.5650287  -0.1121860   0.1337345   0.1264432
  -0.0125174  -0.1757355  -0.7787116  -0.0080723  -2.0705774  -0.5532472
   0.2148783   0.1499584  -0.1614694   0.0729666  -2.3792200   1.3833457
   0.7664533  -1.5752752   1.4787581  -0.4076470  -0.1728498   0.1465774
  -0.1995883   0.7544349  -0.4197499   0.0586439  -1.1806207  -0.0132498
  -0.1811007  -0.1356958  -0.1334699  -0.1977502   1.9006799   0.9616682
   0.6059277  -1.5687397  -0.0010961   0.1481601  -0.0818418   0.0223886
  -0.3681940  -0.7978953  -1.9714905  -0.1763866  -0.0438479   0.5791084
  -0.2786768   0.0897697  -0.0212856   1.7359257   0.4555686  -0.2654556
  -0.2069927   1.3302908  -0.3107856   0.1444218  -0.1135935  -0.1597483
   0.1532331   0.2380475   0.5467750   0.1616029   0.4374406   0.0998647
   0.1299744   0.0860473   0.0212851   1.3609064   1.2832615  -1.6009867
  -0.2568944   0.6457675  -0.1387803   0.1523675  -0.0904111   0.2985450
   0.3172254   0.2153773  -0.9817587   0.0205179  -0.0548013   1.2638589
  -0.2681829  -0.2108820   0.2133380  -0.9820528  -0.6471712   1.4494358
   0.7246255  -0.6877959  -0.4991679   0.0167451   0.1951630   0.0345080
  -0.2564286   0.5510064   0.6603535   0.0360577  -1.1342314  -1.5858799
  -0.0793428   0.2086147   0.0776502  -0.6455842   0.8744092  -0.9439732
  -1.3687251  -0.6001823   0.6431723   0.3676080   0.4177206   0.0614454
  -0.9674558  -0.1171814   0.5453796   1.0385677   1.0542855  -0.2875522
  -0.0293504  -0.4736603   0.2316248   1.5596467  -0.7668044  -0.2957053
   0.3935076  -0.0256144  -0.7174059  -0.0881034   0.3450309   0.1326912
   0.0892611   0.0356810   1.0293250  -0.3666777   0.0490690  -0.5709054
   0.2879261  -0.0532888   0.0829148  -0.6363853   0.0084645  -0.4679050
  -0.0955080   1.0792042  -0.8200315   0.2140397  -0.0989820  -0.1425411
  -0.3317185  -0.8579538   1.9232725   1.0291030   0.6832530  -0.5651032
   0.2746011   0.1473214   0.2112103   1.6263987  -0.2481112  -1.5892767
  -0.3190438   0.9703181  -0.5071566  -0.1903204   0.1354258   0.0249193
   0.1660247  -1.2181615  -1.1450202  -0.0790220   0.6775369   0.9598171
  -0.0474895   0.1931260   0.0103889   0.8238216  -0.7382126   1.4399811
   0.2001254  -0.6463152  -0.5066730  -0.0814036   0.0217608  -0.2295475
  -0.2600448   0.3162099   0.3313118   0.8019065  -1.5980080   0.1240551
   0.2210104   0.1100883  -0.0055253  -0.4933874  -0.9029242   0.9283416
   0.3511598  -1.3726758  -2.4875555   0.1899105   0.1895508  -0.0344669
   1.4226071  -1.0045425  -2.9825473   0.1932820  -0.1045393  -1.1668792
  -0.1578481  -0.1654992  -0.1404542   0.1165057   0.2077808  -0.8099564
  -0.1154841  -1.3124890   0.3635388   0.1156741  -0.1783621   0.0723304
  -0.6772094  -0.2255259   0.2078613  -0.1510887   1.0441098   0.0952659
   0.2118198   0.2517884   0.1319758  -0.7910995  -1.6907365   0.1688907
  -0.3510435   0.0917809  -1.1859468  -0.1670557   0.1082406  -0.2056392
   0.5276697  -0.3251638  -0.2754849  -1.0256436   0.6596453   1.5629570
   0.1408590  -0.0967214   0.0321749   0.4346520  -1.6129298  -0.5173163
  -0.3969931   0.0243753  -0.6979890   0.0263196   0.3828639   0.2097979
  -0.0073450   0.9037415  -0.4480825  -0.2274642  -0.0340782   0.9887714
   0.3166331   0.3859109   0.0523706  -0.4267114  -0.6766748   1.0988371
  -1.6922134   0.1178495  -1.1377279   0.1766892  -0.0033494   0.1547118
  -0.3243978  -0.9330348   0.6646515  -0.0634796  -0.2730533  -0.5399085
   0.0965674   0.0875199   0.2762159  -0.0799256  -0.1686808   0.6528271
  -0.8898349   0.7325954   0.1344369  -0.0653210   0.3353586   0.0390769
   0.7414798   1.2652403   0.0407665   1.6865528  -0.4668619  -0.1981739
  -0.1106431  -0.0161670  -0.0520424  -0.3911556   0.4636798  -0.4461412
   0.5229756   0.5742135  -0.2617434   0.4617796   0.4657562   0.2039150
  -0.2554267  -0.0275902   0.0628143  -0.3143698  -0.2531803  -0.6462979
  -0.0366652  -0.0710255  -0.2216098   0.3372853   1.1182183   0.8507532
  -0.2527295   0.0241481  -0.3635383  -0.0131906  -0.0894321   0.0344514
  -0.5118860  -0.1958378  -0.2191159   0.4681511   2.7688501   0.5027410
  -0.3345647   0.0241513   0.2116408   0.9370636  -0.0643535   0.9097352
  -0.4652563   1.0410284  -0.1763233  -0.2402852  -0.2866732   0.3524902
   0.4061697   0.5369908   0.1031226  -0.8943250  -0.8283609  -0.1071491
  -0.1291723   0.1709302  -0.0593690  -0.5488065   1.3794625  -1.0591873
  -0.2406462   0.7286861   0.2029572   0.0154569  -0.3079452  -0.2044287
  -0.3144167  -0.7973937  -0.7247350   1.4231052  -1.6629328   0.4861038
  -0.1405901   0.0830653  -0.2107252   0.5791850  -0.0461910  -0.7036874
  -0.1653511  -2.0413587   0.7749626  -0.0361123  -0.2702487  -0.1676018
  -0.2952063   0.0263871  -1.1957198   0.2398506   0.5891753  -0.1066177
   0.1205045   0.0919908  -0.2432395  -0.9682954   1.9099777   1.6211191
  -0.7872953  -0.2120928  -0.4130315   0.2544187  -0.0889005  -0.0568846
  -0.6659238  -0.2963680  -0.0803626   0.4105876   0.1130577   0.1324543
  -0.0178921  -0.1782744   0.1991040   0.1036226  -0.1633341   0.3404323
   0.3745053  -1.6121898   0.3916845   0.0331185   0.3998407  -0.3302447
  -0.9677712  -0.2257445   0.4507725   0.0630395   0.5590252  -0.2660279
   0.0079384   0.1133874   0.0805382   0.1272289   0.1875233   0.9891444
   0.8453207   0.9189952  -2.0895972  -0.0009149  -0.2309136  -0.0121058
   0.0403945   1.6809481   0.2574410  -0.1631690  -0.1691717  -0.1773248
   0.4454844   0.2461391  -0.0067724  -0.3339317   0.7329599  -0.1406006
  -0.7712431  -0.2959200  -0.3332569  -0.1513501  -0.1218788  -0.3587751
  -0.1687300   0.2194149  -0.2858621   0.3077067  -0.2253976  -0.0518130
  -0.1954779   0.2360342   0.2800325  -0.7344797  -1.2313890  -1.0718720
   1.8259624   0.0015779  -1.0613565  -0.1965083   0.1793014   0.0886795
  -0.2893221  -0.9707138  -0.0918360   0.6034319  -0.0707778  -0.1449531
   0.2819401  -0.0524386   0.0397944   0.2108268  -0.9059729   0.2001540
  -0.0354606   0.8804463  -0.4230730   0.1680773  -0.0177866  -0.0431593
   0.3819305  -1.8418914   0.8467987   0.8343502  -0.1932434   0.3581496
   0.0838326  -0.0223622  -0.1096824   0.2924578  -0.4621758  -0.0385887
   0.2038116  -0.2223547   0.9448415  -0.2493198  -0.1631360  -0.1856786
   0.7503026   0.1674035  -0.4505027  -0.4950940   0.1353510  -0.6661555
   0.0061076   0.2855922  -0.2336920  -0.9193257   1.2072970  -0.4661457
  -0.7466213  -0.1153463  -0.9264741   0.1103433   0.3541577  -0.1377760
  -0.9798180   0.1984723  -0.8927959  -1.0843635   0.0807746  -0.3906906
   0.1855938   0.5495281   0.0804404  -0.4576054  -0.0152840  -0.3492896
   0.3286579   0.6313059  -1.9328974   0.2877140   0.1967962   0.0015676
  -0.2429820  -0.9737906   0.8600919   0.4932236  -1.4922808   0.1189499
  -0.1933765  -0.0633131   0.1166968  -0.4423247   0.3797084   1.1932235
   0.5593374   1.2412812   0.4851763   0.0089984   0.0199196  -0.4050969
   0.2173586   1.4131080  -1.3332579  -0.7206488   0.5147896   0.9596435
  -0.0332098  -0.1334531  -0.2826303   0.9531628  -0.2510868   0.5825279
   1.5238626  -1.2430586   1.4306957  -0.2757249   0.1898634   0.1085710
   1.4703434  -0.7793271  -0.5378110  -0.6322208   1.2874001  -0.2693247
  -0.1105355  -0.1200508  -0.3170274  -0.8427683  -0.4778652   0.0781230
   1.3459287   0.8813770   1.3362148  -0.1420750   0.1248904  -0.0697727
  -0.7498942  -0.6065390   0.3882963   0.4753542  -0.2687819   0.2609649
   0.0132412  -0.2068988   0.0712052   0.8566154  -0.0483509   0.9367964
  -1.1591629  -1.3558638   0.8753437  -0.0458139  -0.1594477   0.4707294
   0.6852293  -1.7627594  -1.8082337   0.6917417   1.2074819   0.2246750
  -0.1978656  -0.3104800   0.0203326  -0.2253938   0.2010616  -0.2643997
   1.5926627  -0.3572587  -0.3115197   0.0494623  -0.0516578  -0.0929065
   0.0663114   0.5984541  -0.6829224   0.1964867   0.1149296  -0.0091903
   0.0503739   0.2090768   0.0260771   1.3297580   0.9379712  -0.8598303
   0.0840815   0.8809977   0.2761354  -0.0650832   0.1539940  -0.4367278
   0.1073106   0.7066928   0.6947160  -0.8894529   0.7197183  -0.5198104
  -0.0596663  -0.1681589  -0.0940184   0.2318810  -0.7005771  -0.5349833
  -0.3893116  -0.1652006  -0.4689266  -0.0561306  -0.1354134   0.3075236
   0.4934935  -0.3220076   0.3131236   0.1602219   0.2473836  -0.0474305
   0.4156618  -0.0817279   0.0006712  -0.2967341  -0.1904378   1.7903782
  -0.3924356   0.9752086  -0.2759750   0.2676120  -0.0143092   0.2667300
   0.4580671   0.5246809   0.5051234  -0.0853811   0.9964849   0.1377829
  -0.0890497  -0.2372638  -0.0002277   0.4969532  -0.6963997   1.3314290
  -0.2090365   0.8352234  -0.5202388   0.3356385   0.1653332  -0.1790750
   0.7340912   0.9244869  -0.1840255  -1.6282889  -1.3948318   0.5255150
   0.1683837   0.2704063   0.2433700   0.3587030  -1.2913785   0.2895941
   0.4205728  -0.1998938  -0.7666065   0.0844948   0.0314523   0.1078399
  -0.3126238   1.3856651   0.7694581  -0.0073424  -0.1430428   1.2464654
   0.1970290  -0.0080982  -0.0008732  -0.2423559   0.4097447  -0.9909925
   0.5465190   0.3768273  -0.5735688  -0.2839896   0.3143328   0.1199307
  -0.1195848   1.0389534  -1.0865461   1.3193090  -0.7345823  -0.9500300
  -0.0837627  -0.2328469  -0.1175821   0.2867355   0.0854622   1.2829422
   0.5563097  -0.8394893   0.3798155  -0.1330749   0.0355332  -0.1577960
  -0.0650286  -0.1329741   1.1743315  -0.3403952  -0.0574287   0.4450642
   0.2721427  -0.0584325  -0.2982490  -1.1485716  -1.1712170   0.8481583
   0.5264774   1.2888927  -0.0107729   0.3006837  -0.0530789   0.3203740
  -0.3596782  -0.4551498  -0.6673662   1.4483745   0.0428559   1.1658754
  -0.2609493  -0.4160699   0.4155672  -0.2473864  -0.4939769   1.3795584
   0.5160664   0.4761811  -1.2357188   0.1625116   0.0935581  -0.1774881
  -0.2861777   0.3489226  -0.6378102  -0.4692357   0.6848889  -0.2973417
   0.2128983  -0.1011376  -0.0342028  -0.5424924   0.2400354  -0.6021565
   0.7277437   2.0786262   0.8669788   0.2076282  -0.2370118   0.1743155
   2.1862857   0.0773121  -0.1720785   1.3484597  -0.5030317   0.7077895
  -0.0986856  -0.1373672   0.2041662   0.1656414   1.3604262   0.3894021
   0.4636763  -0.9181210  -0.7579450   0.0951651  -0.1676942  -0.2911184
  -2.0772245  -0.1721095   1.1711538   0.0380868  -1.1722165   0.1895738
  -0.3666846   0.1361146  -0.1904077  -0.8109921   0.1383706  -0.1649661
  -0.6615404   1.2106405   0.4554873  -0.1757976   0.1121772  -0.1907926
   0.9259589  -0.9891255   0.0646148   0.3325653   1.6349872  -1.3255394
  -0.0232510  -0.0500849  -0.0752476   0.1941140   0.0352543  -0.3479486
  -0.6589997  -0.8209607  -0.7128177   0.3902200   0.2165161  -0.1265991
  -0.2902613   0.6964698   1.1330360  -0.6092228  -0.2194761   0.9528778
   0.1367045   0.1835435  -0.0457512  -0.1571002  -0.9206160  -0.6304158
   0.4222299  -0.6338339  -0.6465146   0.0927957  -0.3622304   0.0978619
  -0.6398807   0.2308924  -0.4242221  -0.6248507   0.7443441   0.2166229
   0.0420908  -0.0418808  -0.1833863  -0.3149924   0.7658076  -0.5055814
  -0.1738348  -0.6831539   0.0416078   0.0387220  -0.0659876   0.1071045
  -0.7999671  -0.3791392   2.1192367  -0.3806657   0.4209814   0.2496691
   0.1309384   0.0369745  -0.2778613  -1.3068426   0.4036037  -0.0570024
  -0.3327029   0.2222018  -0.9682906  -0.1144353   0.1496189  -0.0713688
  -1.3008846   0.1973637  -0.5903825   0.4180574   0.7677144   0.5110747
   0.0770789   0.1764339   0.0914883   0.6309128  -0.2747929   0.8043037
  -0.9080945  -0.2391013  -1.3650390   0.1832143  -0.1537324   0.1845227
   1.2813231  -1.3367474   0.6059250   1.0795454  -0.4501012   0.5407241
  -0.1886398  -0.2313576   0.0340644   0.5425810  -1.1220652  -0.3901547
   1.1621124  -1.2664673  -0.0524032   0.4435665   0.3867233  -0.3668102
   0.8015888   0.3062234   0.3355294  -0.1529359   0.0403387   0.0161106
  -0.3620811   0.0670673  -0.0352801  -0.6895496  -0.3010364  -1.3730894
   1.3908913   0.9830175   0.5514873   0.0356046  -0.1818530  -0.0715284
   0.1841925  -0.6562606   0.6218137  -0.4738795   0.7802669   0.7458689
   0.2030278  -0.0472121   0.2472022  -1.1249638   1.1961472   1.1231265
  -0.0401570  -1.1167758  -0.0080523   0.0380408  -0.0089278   0.0568388
   0.5022403  -0.2782663  -0.9100685   0.2778973   0.6026646  -0.0625176
   0.0065793   0.0860789  -0.4161446  -0.1531051  -1.5048082  -0.0599989
  -0.8184834   0.1261461   0.8074674  -0.0700152  -0.0764748   0.1939041
  -0.0787724  -1.2451956  -0.4646857  -1.4082506   0.8120668  -0.1148896
   0.2077099   0.0113113  -0.0103780  -1.1383421   1.1765085  -1.1499134
   0.7350564   1.1404134   0.6906702   0.1458753  -0.0934823  -0.0413664
   0.0084593   1.3688875   0.3517391  -0.2588312  -0.0090724  -0.1792232
  -0.2250203  -0.3358312   0.0518424  -1.1432531  -0.9265597  -0.2901082
   0.4746394   0.0837116   0.9757038   0.0122076   0.0048970   0.0234662
  -1.0180351   0.0412571   1.4230999   0.7384731   1.2828320  -1.5598917
   0.0019042  -0.2411760  -0.3654235  -0.1441054  -0.0753524   0.8468534
   0.2450206  -0.6786118  -0.1394174   0.1406162   0.0575462   0.1269093
  -0.2833065   0.3663364   0.6413844  -0.3726255   0.7098082  -0.5716108
   0.0511720   0.1526969   0.0271222  -1.5902144  -1.1471161   0.5646266
  -0.4933695   1.0439160   0.9573776   0.0260945   0.4109996  -0.1954209
   0.9746745   0.7953140   0.3982824   0.1465394  -0.0506255  -0.3567280
   0.1880316  -0.4358420   0.3157432   0.4347446   0.8813280  -0.0349864
  -0.0919593  -0.4507740   2.0574446  -0.3588207  -0.1499490  -0.0379644
   0.1703218   0.6440259  -0.6749055  -0.1237707   0.0708978   0.8607424
  -0.1670808  -0.1798784  -0.3741443  -1.1396585  -0.7769852  -1.1349244
   0.8280245  -0.8678650  -1.1386112  -0.1434407   0.1716166  -0.0219949
  -1.2476066  -0.4198453  -1.0268006  -1.3214232  -0.0541276  -0.3018423
   0.2833742   0.2852039  -0.3503236  -0.9734485  -0.0783045  -0.5677193
   0.7794214  -0.2304108   0.7125806  -0.1991789   0.4517797  -0.0079572
  -0.0937487  -1.4637736   1.1073693   1.8901566   1.4944227   0.3157019
  -0.2509290  -0.0854085   0.4205976  -0.8366342  -0.0255667  -0.1869933
   0.3250204   0.2293765   0.9256269  -0.2275505   0.3273551  -0.3469574
   0.0950480   0.0196268   1.5213437   0.1846241  -1.4427060   0.6508128
  -0.2062171   0.0553802   0.1192436  -0.6874989  -0.8044000   0.1359718
  -0.6764327   0.5464769  -0.0384464  -0.1249206  -0.1125655  -0.2769684
   0.5083125   1.1671802   0.9783561   1.2787373   0.3839160  -0.4073007
   0.0069579   0.1424858   0.0902085  -0.5236679  -0.4117351   1.5021510
   0.0421920   0.5717530  -0.6723420   0.0117634   0.2388198  -0.1738215
   0.6130092  -0.7178221   0.3916698   0.1746754   0.9280012  -0.7129213
   0.1280737  -0.2982198  -0.1920685   0.9449838   1.5268935  -0.3854927
  -1.2926677  -0.8084673  -0.6424823  -0.2277753  -0.0919002  -0.0101139
   0.4123177   0.1769910   0.4023831   1.4169135   1.4987392  -0.5803750
   0.2826641  -0.3326152  -0.1753054   0.0204270   1.2414373  -0.4352387
  -1.9516737  -0.5439402   0.3860139  -0.2317763   0.0057411   0.0667863
   0.6162936   0.8485345  -0.0759198  -0.3935983   0.5766223  -0.0609973
  -0.0336749  -0.3182799   0.2866697   1.4316537  -0.4947477   0.2275535
  -1.0503060   0.6597916  -0.0845353   0.0666079   0.2174001   0.3193340
  -0.8955107   1.5177801   0.0764071   0.0240526  -0.2517835   0.7916368
   0.0875925   0.2799560   0.1470130   1.3094584  -0.8887411   0.3164704
  -0.7564319   0.3141654  -0.7274113  -0.1696925  -0.1667658  -0.2612417
   0.9471657  -0.1678119  -0.6935678   0.2581145   0.9142455   0.4018771
   0.1836927   0.0156188  -0.2303365  -0.2961617   1.1597366  -1.3557379
  -0.0681926  -0.2002752   0.2017578  -0.0768266   0.1092129   0.1723507
   0.7160318   0.2132614   0.3337136   0.6792948  -0.7245029   0.0372771
  -0.2091907  -0.2125687  -0.0887485  -0.8873323   0.4832474   0.3802493
   0.2554901  -0.8831873   0.3705115   0.3053511  -0.2785108   0.1931380
   0.8526456  -0.1595196   0.1282569   0.1833385   0.3084970   0.4296029
  -0.0903560   0.1687466   0.0619134   0.8979915  -0.5874859  -1.3670440
   0.0858886   1.4338776  -0.3840240   0.3135149   0.0407773  -0.2527122
   0.4338037  -0.3405194  -0.1656571   1.2659669  -0.0136628  -1.7138450
  -0.1192596  -0.0146780   0.4138732  -0.1239759   0.8312365  -0.6540924
   0.6930281  -1.3323306   0.2864036   0.1736859   0.1907257   0.2339851
   0.3605423  -0.8472819   0.4115278  -1.2423404   1.0967126  -0.0134885
   0.2500135   0.1151326  -0.0620584   1.0622683   0.3225714  -0.5435662
  -0.3296741   0.4110514   0.7017568  -0.0211616  -0.2394470   0.2430426
  -0.3768522  -0.6517960   0.3404258  -1.2716055  -0.5626540  -0.9537030
   0.0147653  -0.0024578   0.0009040  -0.7443839   0.7270954  -0.1938103
  -0.5494253  -0.0947845   0.8892322   0.2125974   0.1161249   0.1797973
  -0.4134426   0.0906291  -0.4177539  -0.6186670  -0.7025588   0.7867224
   0.0725192  -0.1653832  -0.0107070  -1.6841764  -0.0265512   1.6577989
   0.4296291  -0.4726374   0.0200050  -0.1704162   0.2828061  -0.0835156
   0.0953960   0.6242279  -0.4843852   0.8148839  -0.0642790  -1.0466812
   0.0891792  -0.0218541  -0.1684829  -0.5212716   0.9360955  -0.3672045
   0.1287751   0.2260852   1.3033998  -0.1087170  -0.1444164   0.2085738
   0.1013690   1.1297005   0.2654279  -0.7647803  -0.9552906   0.5687302
  -0.0240045  -0.0720067   0.2026782  -0.7708534  -0.8888152  -1.0568604
   0.7800171   0.4502417  -0.5484412   0.2522655  -0.0619242  -0.2709623
   1.2193239  -1.0903672   0.5030653   0.7502853   0.0802336  -0.5871447
  -0.0575660   0.1853626   0.0836532   0.2982658  -0.4658100  -0.5387064
   1.2557863   0.2585250   0.0972933   0.0310108   0.0202527  -0.2931625
   0.2179418  -0.6549942  -0.1295140   0.2227360  -0.1109217  -0.3132770
  -0.0528287   0.3836063  -0.1274871   0.2870068   0.9088451  -0.6114526
  -0.0664703   1.4921209  -0.5353212   0.2371389   0.0797951   0.0606104
   0.6678341   0.5777993   0.0840081  -0.2868944   0.6600292  -0.7667105
   0.1503731   0.0751108  -0.3250648   0.1471516   0.8111306  -0.4941962
   0.9999141  -1.0251076   0.9102845  -0.3467667  -0.0040941   0.1457579
  -0.7349541   0.3110351  -0.2920497   0.1430937  -0.0294725   0.9386338
  -0.1033792  -0.1075029   0.1022244  -1.6450135   0.7329717  -0.1709038
  -1.3988676  -0.4396226   1.3820624  -0.3861869   0.0385743   0.1559281
   1.0041889  -1.6413794  -0.7965340   2.5198293   1.1949069  -0.6798989
  -0.1538275   0.0356926   0.0703513   0.3952361   1.8033732   1.2548327
   0.6308216  -0.3420297  -0.5846537  -0.1544910  -0.0345243  -0.0558344
  -0.2581122  -0.4545587   0.1316175   0.2765114  -1.1029896  -0.4460825
  -0.1173030  -0.1102928   0.1087322  -0.4787384  -0.3537599   0.3577957
   0.5028569  -0.6776409  -0.9472754   0.1465826   0.3476395   0.1343258
  -0.6472243  -0.0486183  -0.1165466   0.2725299   0.9485407   0.3590692
   0.1152807  -0.0234366   0.1244114   0.5320420  -1.0514323  -0.5009030
  -0.9800848  -0.4131767   0.2614500   0.0271883  -0.1380222   0.2506323
   0.6967213   0.4783235  -0.5316511   0.2003180   0.6268173   0.2748841
  -0.0830049  -0.0800760  -0.3902850   0.7348774  -0.2217180   0.3879024
  -0.4628566   0.0660772   0.9634291   0.1626443   0.0495437   0.0937563
   1.6226002   0.1130001   1.0650951  -0.1225266   0.9929600   0.2085966
   0.4212973  -0.0050249   0.1934784  -1.5472376   0.3617331  -0.2041126
  -0.2861511   0.1581941  -0.5710632  -0.0285151   0.2244521  -0.3218671
  -0.9673834  -1.0503123   1.0525559  -0.8710759   0.5387638  -0.2380055
  -0.1756480   0.2228239   0.2949207   0.4591074  -1.0563394  -0.0884682
   0.2756356   0.7117247  -0.0480530  -0.2033518   0.0537584  -0.1216190
  -0.7308069   0.8347934   0.7877429   0.7869748  -0.6646162   0.2037214
  -0.1538129  -0.0404140  -0.0429178   0.2185107  -0.3492973  -0.8005058
   0.3257430   0.4560878   0.4024911  -0.1045100  -0.0032208  -0.1056591
   1.1542622  -1.1513239  -0.9401255   2.1491587  -0.2451472  -0.4585415
  -0.2042132  -0.0163085   0.0865852  -0.2529303  -1.6831398  -0.1404747
   0.0571262   0.7253500  -0.0675224  -0.3771476   0.3881246  -0.0281722
   0.5464009   0.1708611  -0.9782276   1.7357129   1.0114785   1.2516532
  -0.0590920   0.0493804   0.0030421   0.8516645   1.0924213   0.4642853
  -0.6120496   0.9223882  -0.9735999   0.1230767   0.1852805  -0.1749965
   0.5420455  -0.2428342   1.0490656  -1.0995898  -0.1602863   0.3756463
  -0.0677463   0.0354189  -0.0714959   0.9199499  -0.2095806   0.2117178
   1.1852142   0.0786793   0.0124398  -0.1365982   0.0778251   0.0599126
  -0.7376491  -0.5279436   0.2333679   0.8047550   0.0612919   0.1171218
  -0.0696009   0.1098679  -0.0907442   0.4438086  -0.1605353   2.4435325
  -0.8018391  -0.7703798  -0.3037453  -0.1138953   0.2420242   0.1208668
  -0.5072978  -0.8606288   0.5033965  -0.6820526  -0.5244465   1.2214630
   0.1263287   0.0198299   0.4748039   0.9443749  -1.4021764  -0.6159528
   0.4402781  -0.5171803   1.0681728   0.2686675   0.1807011  -0.0421244
  -0.7628437  -0.6333550   0.5874260  -0.6117391   0.2573569  -0.5099544
   0.0011921   0.1432584  -0.4187753  -0.0526993   0.2739386   0.0292227
  -0.1205026   0.6148000   0.5325890  -0.0861572  -0.1470241   0.3398707
   0.0648051  -1.2666929   0.7588906   0.1475132   0.1087859   0.2885635
  -0.0665223   0.0503971  -0.2535940  -0.9256134   0.5171707   0.4739361
  -0.9334401   0.2873311  -0.3632437  -0.1115935  -0.2343933  -0.2210836
   0.5634100   0.0758835  -0.5292694  -0.8254967  -0.5768396   1.2006872
  -0.0262611   0.0051909   0.0647593   1.2813872  -0.7882798   0.3306496
  -1.0416802   1.4022542   0.7205589   0.2806278  -0.1552477  -0.2587354
  -0.3375949  -0.3195750  -2.0488958   0.0086532   0.3205227  -0.3154684
   0.1403915   0.1953256   0.1290517   1.0124993  -0.7673345  -0.8928947
   0.5235023  -0.3633670   1.1130632  -0.2426705   0.5069005   0.0996282
  -0.6948231   0.6925031   1.3674631   0.8162382  -0.3493292   0.3432810
   0.0401519   0.1934412  -0.3349374  -1.1872606   2.9155960  -1.1938720
  -0.0130799  -1.0380645  -0.5683776   0.0593016  -0.0209048   0.1406418
  -0.9591540   0.9369159  -0.4204738   0.0186416  -0.0809095  -0.9844710
  -0.3577977  -0.2475775   0.2594455  -1.4112047  -0.8511358  -0.9349857
  -0.2469087   0.2009138  -0.3941486  -0.0732739   0.1337294   0.0535071
  -0.8374115   0.3134452  -0.3717059   0.9343307   1.0950876   0.8129587
   0.1476382  -0.0060186  -0.1594693  -0.7027023  -0.8985531  -1.0691385
   1.0527668   1.0943886   0.3438468   0.0717704   0.2666300   0.2393726
  -0.2364521  -2.0894275   0.4364722  -0.0359464  -0.2566473  -0.2227474
  -0.2489303  -0.1041333  -0.0271009   0.3120729  -0.4136102   0.2785074
  -0.6982009   1.4649391  -1.6606295   0.1851797   0.0251609  -0.0649207
  -0.0398778  -0.4597812   0.7601592  -1.3318733   0.4763945  -0.7934307
  -0.0092498  -0.0900240  -0.0109719  -0.9792301  -0.4186701   0.4956331
  -2.0454137  -0.9044333  -0.1268796  -0.2996002   0.1300646  -0.2205945
  -1.1024435  -0.0003104   1.1100051   1.7452492   0.4912458   0.0870719
   0.1111404  -0.5912010   0.2135231  -1.0877851   0.0980638  -0.7679985
  -0.3437429   0.0070290   0.9244131  -0.3497639  -0.1079118  -0.0065214
   0.4023769   0.0719634  -0.3507427  -0.9736564  -0.6632660   0.8305652
   0.1527594  -0.2546422   0.2662010   0.6994682   0.7242807   0.4714849
   0.5867082   0.1064405  -0.0034497  -0.1602340  -0.0565129  -0.1361890
   0.3991275   0.1224888  -0.0008448   0.5773018  -1.4665104  -1.4145554
  -0.1004007  -0.2535493   0.0556395   0.2206225  -0.2381855  -0.8344540
  -0.2261909   1.6570939  -0.7629201   0.1568314   0.0308700   0.4647374
  -0.7776415  -0.6758791  -0.5600805  -0.8794350  -0.0110468  -0.2370851
  -0.1446050  -0.6767748   0.4875245  -0.3238847   1.1506886   1.7903252
  -0.5165425  -0.4295694  -0.0060655   0.2943856   0.0142589   0.0966488
   0.7355059   0.6430240   0.4872984  -0.3241819   1.1764491   0.3228143
  -0.4080935   0.0733525  -0.5586104   1.1246841  -0.5571653  -0.0729817
  -0.5468350   0.7240691   1.2000232   0.1525167   0.1038031   0.1389975
   0.4964187  -0.0070903  -0.7816960  -0.2866222   0.5828179   0.2130295
  -0.1306262   0.1263473  -0.2170092  -1.5800387  -0.0358673  -0.6196835
   0.4269028  -0.5470946  -1.4479667  -0.0017950  -0.0876763  -0.1311429
   0.4100503   1.4454435  -0.7488255  -0.0020320  -0.6521021  -0.1261550
  -0.1658970   0.1075561   0.4394718  -1.2998616   0.4375088  -0.0950188
   0.0740629   1.1062579  -1.3918403   0.1003136   0.0725240   0.2145416
  -0.7883502  -0.5159281  -1.2906973   0.6299369  -0.2840036  -0.1738827
   0.1257160   0.0870025  -0.3079320  -0.1945496  -0.8107230  -1.5861139
   1.0009724  -0.4527162  -0.5545167  -0.0406703   0.0864459  -0.0340388
  -1.8753015   0.0735610   0.3538399   0.1798599   0.4963002   0.2530603
  -0.1296325  -0.2101183   0.2995548  -0.0023584  -0.3287759   1.3809518
  -0.7660140   0.7297115   0.3066908  -0.0455591   0.0558497  -0.0024597
   0.4584690   1.3193001   0.1035917   0.7977104  -0.5328925  -0.2836118
   0.0303447  -0.1263064  -0.2498494   0.1619016  -0.2407625  -0.1952202
  -0.1823291  -1.0554023   0.7475788  -0.0655671  -0.1697810   0.1500115
   0.3671463  -1.0340912   0.3819809  -0.0758087   0.8575199  -0.0521100
  -0.0302200  -0.0512854  -0.1623413   1.4932379   2.4499574  -1.6970022
   1.1921258  -0.7612264   1.0440899  -0.0056239   0.0828559  -0.4793905
   1.1896350  -0.3650841   0.2561156  -0.4635407  -0.4059405   0.6372166
  -0.0033037  -0.1168954  -0.1021306   1.4623773   0.6314134   0.4544802
  -0.9892560  -0.8027220   0.1259800   0.0732521  -0.0436702  -0.0886391
  -0.8541366  -0.3434047   1.0160661   1.5366219  -0.3704543   0.2827860
  -0.1783195   0.1066215  -0.0111593  -0.4057018   0.1079286   0.4242176
   0.7403181   0.3874315   0.1481460   0.0763395   0.2376871   0.1494314
   0.0932822  -1.0761194   1.2395680  -0.5478846  -0.8625731  -0.3456351
   0.0613566  -0.0062297   0.0328382   0.4098436   0.4485484  -0.5060609
   0.4912887  -0.2743640   0.3209841   0.1645860  -0.1879568   0.1386955
  -0.9172983   0.0457041  -0.1352196   1.7158852   0.1936184   0.5458631
  -0.0541180  -0.3175657  -0.0747237   0.4564208  -0.4122868   0.9305784
   0.2212525   0.3363036  -1.0530655   0.0815963   0.1446897  -0.1203407
  -0.0032793  -0.8719258   0.3151851  -0.3179650   0.0031055   0.4828313
  -0.5221999  -0.1823903  -0.0936354  -0.2562048   0.3516464   0.6173473
   0.3860054   1.0189865  -0.4369535   0.0371143   0.0607996  -0.0872456
  -0.2300924  -0.7134809   1.4415402   0.2932713  -0.2034132  -0.8027791
  -0.1761869   0.3760228   0.3159133   1.0154948  -0.0007894  -0.4623649
   0.9896422  -0.2433110   0.3078742  -0.0220165   0.2487183   0.0652707
  -0.4007384  -0.6922551   0.2239362   0.9544471  -1.5318353   0.2464817
  -0.0449026  -0.0479546   0.0794298   0.6344466  -0.5528688   1.2444762
  -0.9181222  -1.2058060   0.2811158  -0.1498198  -0.0830022   0.0187120
  -0.0998617   0.3653061  -0.0969671  -0.8124573   0.6382572   0.8909569
  -0.2780327   0.0496517   0.0999886  -1.6409614  -0.8155312   0.4388527
   0.1123783   0.2908230  -0.2065320   0.0324763   0.1241087  -0.2506770
  -0.4584948  -0.7644614   0.9854165   0.1512533  -0.6374795   0.3403800
  -0.1707405  -0.0050902   0.1044738  -0.2424359   0.2245517   0.2038560
   0.2615281  -0.0807960  -0.0678911   0.2204121   0.1576298  -0.2255662
  -0.3069888  -0.6527437  -0.3691325   1.5297196   0.2089660  -0.3201477
   0.4958638  -0.0829591   0.0018310  -0.3794422  -0.9976525  -0.1205163
  -0.3171227  -0.7902583  -0.4301305   0.0538933  -0.2317473   0.0532199
  -0.2653725   0.1663855  -0.2902635   0.2729872  -0.7037489   0.4541631
  -0.0546470  -0.2402602  -0.2744449   0.5967252   0.5637824   0.3467216
   0.0995078  -0.7807400  -0.1220295  -0.0806359  -0.0486638   0.0746911
   0.1319128  -0.0792950   0.4954183   0.7117653   0.2125038  -1.6474323
  -0.2357149  -0.1872656   0.3641908   0.0519688  -0.9441547  -0.4333557
   0.6725951   1.4873871  -0.1171181  -0.2670178  -0.1204703   0.0426499
   0.6878270   1.3047626   0.5611672  -0.2406202  -0.1245859  -1.0998641
   0.1569821   0.1135342  -0.1829790  -0.2924107  -1.7320783  -0.5364375
   0.8034133   0.1650737  -1.3622400   0.0875860  -0.2537587   0.1819924
   0.0311221   0.1897670   0.7505496  -0.3105966   0.8294869  -0.0667236
   0.0542821   0.0572638  -0.0374949  -0.4331586  -0.4936368   0.5548241
  -0.2669227  -0.5818609  -1.6944848   0.0391582   0.0502021  -0.4338535
  -0.5407241  -0.1436686  -0.2792788  -1.4597402   0.5565476  -0.0423888
  -0.1717154   0.1735177   0.0921776  -1.6236192   0.7879899   1.2352545
  -0.4705525   1.3750553   0.2304603  -0.3571700  -0.0772863   0.2130198
   1.4757093  -0.4733480  -1.5178390  -0.5996836   0.7382952   0.9226203
  -0.2653600  -0.0771858  -0.4453463   0.0187464  -1.3035719  -0.0057379
  -0.2370958   0.4573396  -0.8454530  -0.0072378   0.0496280  -0.0170408
   0.0334965   1.0032463  -0.7907426   1.1836385  -0.7787028  -0.0235074
  -0.1278355   0.0736805   0.1745505  -0.7577835  -0.4321401  -0.9253091
   0.3877088  -1.1261762   0.4245675  -0.0402409  -0.0085980   0.2003817
  -0.7754954  -0.1835179  -0.2708798  -0.0522703  -0.1002038   0.8448940
  -0.0993858   0.1318625   0.2011379  -0.7385127   0.0195257  -1.3581767
   1.2213632   0.2270925  -0.5201054   0.2370000   0.0000554  -0.1593425
   0.2467624   1.2368009  -0.3031337   1.9780205   0.1921835   0.3615485
  -0.1527271  -0.0558266   0.5038271   1.2537704  -1.6893711  -0.5113773
   0.3742212   0.6834282   0.9858213   0.2638574  -0.0418004  -0.6520020
   0.5597063  -0.0430811   0.3471945  -1.1874744   0.9597965   0.1980686
   0.2395130  -0.0104346   0.3565299   1.5828178  -0.0804638   0.2844237
   0.0417821  -0.0397484  -0.4264768   0.1142278  -0.2024099   0.1697373
   0.9810997   1.2906550  -0.2758756  -1.0248121  -0.3860623   0.0824162
   0.0972532  -0.1130497   0.1492262   1.2027286  -0.0550682   0.4630893
   0.5645927  -0.4521027   0.7001346   0.0908116   0.0717129  -0.5304710
  -0.4732470  -0.1263353   0.5017549  -0.3791530   0.0525714   0.2845579
  -0.1397754   0.2453780  -0.1144250  -1.0537987   0.3355892  -1.0800111
  -0.8248128  -0.8612256  -0.1460038   0.1771885   0.1874164  -0.1773808
  -1.1543489  -1.0081576   0.0825271  -0.9823070   0.2602502   0.9758126
   0.0936843  -0.0277284   0.2475550   0.6384619   0.4745061   0.8594937
  -0.0736060  -0.8802892   0.6697016   0.1004834  -0.2584202  -0.0667265
   0.5036725  -0.7244165   0.7854620   0.0700970   1.8077124  -1.0527239
   0.2067795  -0.0974519   0.2774186  -0.0938598  -0.0639944  -1.2096053
  -0.8327969  -0.7502537   0.9219811  -0.0451623  -0.1673323   0.0721038
   0.3677253   0.9607214  -0.4741058  -0.7106507   1.8482407   0.0091578
   0.0234751   0.0588942  -0.1522741  -1.0890722   0.3274441  -0.2815164
   0.0635466   0.2051626   0.6545035   0.4286933  -0.0232504  -0.0484045
   0.1318995  -0.2595138   1.9431792  -0.4408546  -0.4465805   0.5446243
  -0.4132141  -0.0821109   0.1690563  -0.1667632   1.3221301   0.8748823
   0.0169932  -0.1999075  -0.0517528  -0.0131944  -0.3533574   0.2023852
  -0.6896606   0.4318754   0.5954650   0.1388549  -0.9706881  -0.6642781
  -0.1121662   0.2015511  -0.4364271  -0.1905150  -1.2264173  -0.7825621
  -1.3280708   0.4067819   0.0551879   0.1150814   0.2624304  -0.0377232
  -0.0310196  -0.2285969   1.1354858   0.8818405   1.0499957   0.6570637
   0.2971238  -0.1107935  -0.1446468  -0.3784678   0.5755098   1.2342159
  -0.4336957  -1.0696706  -1.0557501  -0.1382204   0.0727440   0.0068768
  -0.6708207  -1.4057726   0.2247279  -0.1647654   0.0437299  -0.1932318
   0.1921574   0.1976251  -0.3729992  -0.4288562   0.1743801   0.0997831
  -1.5194122   0.7566214  -0.1868273  -0.1486547  -0.1755996   0.0401282
   0.0753067   0.3687343  -0.1417906  -1.0012494   0.6239833  -0.1198124
   0.2785556  -0.0295401  -0.1444493   0.2408001   0.0719842   0.4213344
   0.6218762   0.1457386   0.7056384  -0.1060809   0.1914164   0.0649739
   0.8121535   0.8314901   1.1013033  -1.4611779  -0.1380443   1.0123746
   0.2043648  -0.1665584   0.1027286  -2.0239222  -0.5963788   0.9403256
  -0.0164945   0.3458450   0.1578465  -0.0183457  -0.4110042   0.2475474
  -1.2899177   0.6802420   0.4631326  -0.7057307  -0.3512602   1.5841668
  -0.0646253  -0.1060229  -0.3438278  -0.1784764   0.1190817  -0.5876496
  -0.2774099  -0.7890812  -1.0085272   0.0982014   0.0564738   0.0153323
   0.5611257  -0.5980659   0.5357835  -1.0391197   0.4320449  -0.6753825
  -0.1161929  -0.4620143  -0.0798962   0.1147981  -0.9589575   0.3525143
   0.6534514  -0.2592754   0.1727510   0.2617349   0.3224151   0.0333578
   0.4137349  -0.4727321  -0.9699847  -0.8174672   1.0180987  -0.2537706
  -0.3640241  -0.0774445  -0.1879622   0.4721961  -0.2048765  -0.1316302
   0.1415399  -0.3295866   0.6545845  -0.0814312   0.0076914   0.1328119
  -0.2731744   0.9618617   0.1739876   1.0371234  -0.9271735   0.3856573
   0.1429036   0.3116183   0.2098774  -0.1461656  -1.2859918  -0.0523786
   0.4688785  -0.2021299  -0.1098824   0.0918564   0.1760318  -0.2934731
   0.0577868   0.3610578   1.0095161  -0.5739049   0.2656969  -0.6521058
   0.1613149  -0.3599498   0.0792830  -0.4551288  -0.0241001  -0.2340165
   0.5936193  -0.1776211  -0.9334704   0.3860715  -0.0019066  -0.0080417
   0.4833918  -0.7254431   0.0425448  -0.8073181  -0.4836453  -0.2908275
  -0.2452343   0.0844573  -0.1067549  -1.0993724  -1.6710219  -1.1476976
  -0.4395618   0.5715354   0.0934145   0.1098304  -0.3572963   0.3217145
   0.6559952  -0.7028332  -0.7816546   0.6647286  -1.1274107   0.7642887
   0.0210313  -0.0887992  -0.0877883   1.3628026   0.3815395  -1.3367431
   1.0855248  -0.9850811  -0.9761504  -0.0525937   0.0567319   0.1787610
  -0.5802736  -0.4796955  -0.4428138   0.4607952   0.7034755  -0.8717543
  -0.1942781  -0.1934838  -0.1022099  -0.0954228   0.4782028  -0.5040984
   0.2664391   0.6123393  -1.3748155   0.0360666   0.0270430   0.0519828
  -1.6029562  -0.3019170   0.7286631  -0.4139433   2.2880778   0.9900462
   0.3325542  -0.2410312   0.1770195  -0.9635305   0.8427927  -0.0538688
   1.7681972   0.3002642  -1.4713143   0.0330867  -0.3428644  -0.2312279
   0.1129497   1.1290189  -1.7245334  -1.2271773  -0.4678298  -1.0551950
   0.2397925   0.0442513  -0.2293321  -0.1375557  -0.7741376   1.8202772
  -0.8961816  -0.0956852  -0.2799075  -0.0029274  -0.2159314  -0.0131485
  -0.4319120  -0.7477854   0.5474536   0.1408646   0.3910615   0.6350163
   0.0432851  -0.1866695   0.2050245   0.5040280   1.4063979   0.5238114
  -1.7743548  -0.0963831  -1.0366267  -0.0881787  -0.1948225  -0.3797518
   0.4002869   0.2876292  -1.6512371   0.6415671   0.9342554  -1.5212500
   0.0670103  -0.0680833  -0.1136347   0.4228166  -0.9757506  -0.3324599
  -0.0843101   0.7650823  -0.3016585  -0.1841892   0.1058949  -0.0304877
   0.1629042   0.4581681   0.2583477   0.5127734  -0.1296142   0.4390158
   0.1193024  -0.0185269  -0.0389331   0.2150366   0.0757582  -1.1837161
  -0.3271451  -0.0115571   1.7306495   0.2322505   0.1844699   0.3205279
   0.0230300  -0.0112350  -0.4170342   0.3563105  -0.0814519   0.0778682
   0.0064533  -0.0867599   0.0882529   0.0084206   0.4503745  -0.9369631
   0.5297574   0.0248813   1.7330271   0.0200017  -0.0835815  -0.0058664
  -0.5259764   0.2703593  -0.6608561   0.6810939   0.2712583   0.0694809
   0.0348363  -0.2024221   0.0087858   0.5485703  -0.2678981   2.2965829
   0.7220027  -0.9363514   0.1768200  -0.0283849   0.0411709   0.2637330
  -0.6495965  -0.3593125  -0.3748651   1.2880079   1.0964168  -0.1072542
   0.0123073   0.2141923   0.0713198   0.1466184   0.1005673   0.1032150
  -1.4623691   0.4502558   0.1521779   0.1852991  -0.1023883  -0.0012073
   0.4144019  -0.4913819   0.4493673  -0.1000558   0.7615540  -0.1020213
  -0.1480339   0.1323052  -0.1583496   0.9241740  -1.2164497   0.2200322
   1.4800040   0.1336992  -0.7298371  -0.0257203   0.0903437   0.1593800
   0.3844220   1.2372909  -0.9188176   0.4697122   0.2478600   0.7473387
   0.0769494  -0.3494097  -0.0671287  -0.6859894   0.5213857  -1.3551147
   0.3990252   1.3977791  -1.0222427   0.0654937   0.0487760  -0.2133968
  -0.0312232   0.2886015  -0.1467175   0.5037284   0.7295532  -0.4306903
   0.3078530   0.1148882  -0.0941911   0.8062006   0.2305601   0.1650737
  -1.6261089   1.0420166  -0.2108670  -0.1725757  -0.1078755   0.1218599
  -0.2776159  -0.0477750  -1.5318909  -0.3966465   0.2475553  -0.8457599
  -0.1420457   0.0008524   0.0187118  -0.6340144  -0.9220549  -1.0222049
   2.1300504  -0.1376753  -0.9599092  -0.0314375  -0.0946675   0.1928086
  -0.7803503  -1.0669509   1.3007187   0.8106452  -0.7554858  -0.6009358
  -0.1518610   0.1123073   0.0982610   1.2404579   0.0368335   0.6018017
  -0.4066130  -0.1057402   0.2452614  -0.0486934  -0.0639630   0.1629056
   0.4381714  -0.3781242  -0.9742287  -0.1418463   0.3195244  -0.3039273
   0.0195519  -0.1121776  -0.0939219  -0.5680014   0.4011657  -0.7875978
  -1.2065197   1.0456237   0.8377711   0.0540608  -0.1076592  -0.3250019
  -0.1589777   2.3417459  -0.1471137   0.7376943   1.1587367   0.4570873
  -0.0956322   0.0316819   0.1075039  -0.7654296  -1.1920671  -0.0626396
  -1.5850028  -0.3312020  -0.6184626   0.4564688  -0.1911566   0.0465002
   0.0412164   0.2811553   0.3405724   0.0255147   1.1797636  -0.2695496
  -0.2725470   0.2910056  -0.2822020   1.3851856  -0.8664318  -0.3407350
  -0.1546643   0.0739246   0.9275309   0.1535812  -0.1031843  -0.5203620
  -0.7088392  -0.6107254   0.5669279   0.1164642  -1.1156049  -0.1380850
   0.1157797   0.2542357   0.2320906  -0.1444921  -0.2740608  -1.7913812
  -0.1976905   0.2167348   0.6354637   0.1244015   0.2498236  -0.0460470
   1.0872056  -0.8646236   0.4332877  -0.6393222  -0.1593390   0.3388067
  -0.2515969   0.0099148  -0.5179418   0.5751957   0.1473468  -0.1008175
   0.8258323  -0.9907331   1.0501602  -0.1732883  -0.0746316  -0.1358869
  -0.3789173  -0.1427997   0.3478825   0.7587113   1.2066309   0.2978680
   0.1233559  -0.0487904  -0.0652031   0.2634868  -0.2458406   0.5998825
   0.4696164   0.2317214  -1.8120135  -0.0833012   0.2326966   0.0399812
   0.2724490  -0.4703924   2.6127796  -0.7725980   2.0059667  -1.1020951
  -0.2574111  -0.1015343  -0.1291166  -0.5405312   0.6049181  -1.3910021
   0.5385303   0.7596979   1.1623336   0.1305488   0.1422172  -0.2255005
   0.0677276  -0.4541619  -0.4862575   0.7373797   0.4549540   0.2617513
  -0.3328537   0.0879602   0.3406611   0.0931574   0.4687710  -0.1666586
  -0.4620812   0.0214449  -0.9092841   0.0312687   0.4238782  -0.4468916
  -1.3539079   0.2289448   0.8509287   0.0658289   0.5600500  -0.6395692
   0.1654668  -0.1723979   0.1122566  -0.5584295  -0.8900228  -0.7969136
   1.1884063   0.1243700  -0.6600752   0.1071388   0.0162647  -0.0802732
  -0.5739165   0.6647168  -1.1766599  -0.7923837  -0.2209388   0.0028907
   0.4355780  -0.0306257   0.2364534   0.6559574  -1.0606686   0.9739192
   1.3855079  -1.1830207  -0.5909535   0.1046283  -0.1266755   0.3466759
   1.2596428   0.2667787  -0.0039023   0.5311322   0.3226131  -0.7474043
   0.1802262  -0.2618565  -0.0027187  -0.5703147  -0.0104245   0.1901318
   0.4265926  -0.5144538   2.1548240   0.1200117   0.1562770   0.2986048
   0.5437109   0.1036852   0.5656642  -1.2572569  -0.3904218   0.1720681
   0.3111555  -0.0197763   0.0153274  -0.3466087  -0.8832652  -0.6559954
   1.6881169   0.0543081  -0.2066450   0.0605637   0.1621980  -0.1759853
   1.2029985   1.9540418   0.0504783  -0.3177898  -1.3066975  -1.0282955
   0.0893820  -0.5354403  -0.0628242  -0.2816226  -0.8210776   0.5574664
   0.6789250  -0.0132319  -0.2856995  -0.2185952  -0.2715019   0.1909640
   0.0570940  -0.0232719  -0.1948185   1.0113448  -0.5350730   0.2101697
  -0.0427830  -0.0499279  -0.0325684   1.8329200   1.0703636  -0.6815146
   0.0037641  -1.8479161   0.1842768   0.2568421   0.2712621   0.2201139
   0.7503819  -0.0297919  -0.4778504   0.2304294   0.9150606   0.0065801
  -0.1416349   0.1018061  -0.0968684   0.3098258   2.2181880  -0.3390852
   0.0719663   0.1987755  -0.0440105  -0.0966345  -0.1968774  -0.0051633
   0.6428378  -0.4547151  -0.0946278  -0.6879254  -0.4266953   0.2976970
  -0.0837807   0.0952329  -0.3554739   0.6898180   2.1678319   0.0081770
   1.9772539  -0.2165707  -0.1725955  -0.0047579  -0.0471795  -0.5458248
   0.0500789  -0.6088644  -0.1216500  -1.5546980  -1.0504471   0.6674081
  -0.1963256   0.1852425  -0.0975884   1.5063525   0.9673411   0.1920569
  -0.6788066   0.4460521   0.9679876  -0.3031228   0.2602391  -0.2051813
   0.1789394   0.1072091   1.6505072   0.0608878   0.2409483  -0.7056053
  -0.6038375   0.0984430  -0.0354078   0.7380143  -0.2216419  -0.2917629
  -0.3843122  -0.8006310  -1.2659371  -0.2394079  -0.0941701   0.1887748
  -1.2556920   0.5046222  -1.2187234   2.0436401   0.8726181   1.8073144
  -0.2373788  -0.0811725   0.3283110  -0.5835607   0.1627736   1.1937317
  -0.3360755  -0.1682158   0.5226261   0.2370166  -0.0377949  -0.5152164
   0.5596501  -0.8799825  -1.1820108   0.2567571  -0.6251239  -1.4830892
  -0.0676028   0.1530938  -0.1775699  -0.5495736   0.5403140  -0.6177620
  -0.5728312  -0.4254535  -0.0915219  -0.1907654   0.2485424  -0.1385122
   0.0578488  -0.0978969  -0.8108960   0.0924493   0.0989545  -0.7695211
   0.1074966   0.1892934   0.0339455  -0.3736146   0.2289858   0.3621699
   0.5362558  -0.4676229   0.3441657  -0.0836562  -0.2314854  -0.4054361
   0.7053089   0.4484455   0.1809266   0.8148401  -0.6259177   1.0986124
   0.0738655   0.1995778   0.1696044  -1.1688545   1.1782678  -1.0485811
  -1.0152001   0.1503186  -0.0528411  -0.1531402  -0.1149363   0.2770610
  -0.7388189   0.2417407   1.0392717  -1.4336153   0.7912788  -0.4433778
   0.0101353   0.3491460   0.1233099  -1.1132809  -1.2234972  -0.9248814
  -0.7152086   1.2452118   0.8049827   0.0103847  -0.1197853  -0.2611599
   0.2243466  -0.3851704  -1.3789876   0.9080617  -0.0692568   0.5829131
  -0.0453011   0.2465700  -0.1184966  -0.2021359   0.4417296  -0.0837214
  -1.7353336   0.3183661   0.7886271   0.2800723   0.1126556  -0.0046291
  -0.1630785   0.3013735  -0.5089258  -0.6359339   1.1521822  -0.9558804
   0.3598663   0.0154223  -0.1707645  -0.4584000  -0.8552580  -1.2211668
  -0.5726041   0.5457631  -0.0062236  -0.0434756   0.3322209  -0.2893206
  -0.3887399   0.8173798   0.4603665   0.2805542  -0.5765003   0.5259157
   0.0835212   0.2710645   0.0937843  -0.5649201   0.8584315   0.0432489
  -1.8855233  -0.1341154   1.4757899  -0.1729843  -0.1234974   0.2943903
  -1.2600154   0.3427760  -0.0042437   0.6595933   0.9142387   0.9900380
  -0.3921165  -0.4881986   0.1506561   0.1781188   0.3618059   1.0503596
  -0.6443296   0.6045839  -0.4746773  -0.2797391   0.3106275   0.1455321
   0.0126010  -1.4961946   1.1547823   0.7462896   0.8099463   1.5689615
  -0.0273207  -0.2228282   0.1868996   1.9633937   0.6052971   0.1941004
  -0.9623756  -0.1181380  -0.3482758   0.2830096   0.2857904   0.3150595
   1.3520585   0.0805118  -0.1895666  -0.1300428   0.6557377  -0.7662497
  -0.3255588   0.1962670  -0.2392397   0.0137655   0.7811477   1.1455476
   0.2085251   0.3550020   1.0946423  -0.0849915  -0.1545022   0.6473660
   0.4543750   1.5706531  -0.9147118   0.1536531   0.1854879  -1.5938389
  -0.0282911   0.4367848   0.1801552   0.8684264   0.3230217  -0.4076296
  -0.1143493  -0.0614103  -0.2178769   0.0494218  -0.0886267  -0.2233053
   1.3105782  -0.6181598   0.5272689  -0.9668894   0.3389116  -1.1969266
  -0.0051934  -0.1327495  -0.1101158  -1.2857833   0.5742384   0.1734109
  -0.3229498  -0.7214909   0.4244740   0.0999783  -0.0539497   0.1436570
  -0.8158137  -0.8572082   0.1250736  -0.7743403  -0.0451129   1.9681883
   0.1514871  -0.0130489   0.2710422  -0.2876623  -0.6653002  -0.3623089
  -0.1183996   0.6251978   0.9656116  -0.2034688   0.0063467   0.2484232
   0.6820419   0.4302593  -1.6669793  -0.3915264   0.0879745   0.4459499
  -0.0134214  -0.2196455  -0.1646277  -0.5840994  -0.8698059  -0.7882709
   0.4413120  -0.0120431   1.7925172   0.1793664   0.2337207  -0.2782404
   0.1239702  -0.1158129  -1.0189962  -0.1461746   0.2329803   0.1209059
   0.0018851  -0.2026270  -0.0460020   0.4913919  -1.4394722  -0.8726762
   0.1405576   0.2004126  -0.8224483  -0.3688706  -0.2882655   0.2765975
  -0.6569476   1.3143851  -1.4792366   0.1861737   1.6530273   0.1515576
  -0.1725109  -0.1453828  -0.0605743  -1.1842582   1.0061634  -0.2445856
  -0.5045202   0.8760433   0.6710341  -0.0915881   0.2629031  -0.0067061
   0.8483322  -0.8544157  -1.2344902  -0.1739749   1.3443054  -1.0131302
   0.2028276   0.0104241  -0.1708846  -0.4758237  -0.4295355   0.0570875
   0.0492620  -1.1615413  -0.3739702  -0.1108156   0.0577747   0.0283511
   0.2209975  -0.2542012   1.5010220  -0.7501776   0.4521563  -1.3102249
  -0.2058888  -0.0054162   0.0057629   0.2964770  -0.0378527  -0.4742489
   0.3135268   0.9621155   0.4112710  -0.2264166   0.0759601   0.0088740
  -0.3888378   0.7411499   0.4745937   0.9117017   1.7355691  -0.4375554
   0.0943620   0.1572336   0.1374280   1.0969543  -0.4628969  -0.4389103
  -1.6005244   0.7278751  -0.7417506   0.4371326   0.2490126  -0.1738536
   0.3925291   0.3250024  -0.0359298   0.1275565   0.1843752  -0.3895153
  -0.0009372   0.1260001  -0.4088632   0.1075009   0.3006051  -0.6231940
   0.3101020  -0.1669041  -0.1392451   0.0071076  -0.0076097   0.0914357
  -0.1539066  -0.7854140  -0.1466318  -0.4048751   0.3776748   0.4605225
  -0.0833751   0.2385258   0.0646977  -1.6104389  -0.1506224  -1.2249798
   0.2793256  -1.1543579  -0.5223054  -0.0378506  -0.2192219   0.1954891
  -0.0232539   0.5102150  -0.4250490  -0.6849825   0.1835095  -0.2764092
   0.0074357   0.2307727  -0.3604617   0.6677865  -0.5212861  -0.5303158
  -0.6377260  -1.8479645   0.7169594   0.1004310   0.0562882   0.2311747
  -1.4791651  -0.6180090   0.6901295   0.3681408   0.0055428  -0.4077500
  -0.1111362  -0.0416083  -0.0664796   0.8799502  -0.2006875   0.9725595
   0.6730663   0.5474462   0.1706011  -0.1665923   0.2224211  -0.2066219
  -0.4152308  -1.7299694   0.8641567  -0.2765379   0.3699503  -0.5088668
   0.2019460  -0.0409371  -0.2831607  -1.0895845  -0.2483943   0.0139030
   1.2549058  -0.1954329   0.6303182  -0.0651972   0.3254759  -0.0049915
  -1.1069499  -0.6457765   0.6434817   0.3124884  -0.0139336   0.9295301
  -0.1779703  -0.2777010  -0.0125600   0.0105851  -0.3213764  -0.7393678
  -0.9985023   0.0079065  -0.1515011   0.0582658   0.0264885  -0.0146130
  -1.3223325  -0.5124447   0.4113822  -0.0936117   0.0591974   0.2069817
   0.2523782  -0.0252059   0.1939634   0.1595762  -0.7541347  -0.1995539
   0.8149830   1.0689628  -0.2544825   0.0792798  -0.0372309   0.0932372
   0.0488614  -0.9392628  -0.9707116  -1.3818517  -0.0071251   0.8799906
   0.4553212  -0.0477304   0.1258829   1.0187128  -0.8892924   0.0435165
   0.0947124  -1.2684233  -0.2441633  -0.2387153   0.1224855  -0.1600605
   0.7084547   1.9512982  -0.8480166  -2.0919774  -1.2945720   0.3385947
   0.1533448   0.1355952   0.0334915   0.1211039   0.7521965  -1.4618388
  -0.6163785  -0.4450306   0.2849485  -0.0697086   0.0573096  -0.0026506
  -0.5513975   0.6759772  -0.1786881  -0.1812711   0.2983426   0.4714142
   0.2030432  -0.3018015   0.2168108  -1.7431474  -1.1315283   0.3323951
   0.7133996   1.1669035   0.5449125   0.0920463  -0.0995331  -0.1174893
   1.2244294   0.3433271  -0.1850715  -0.6101830  -0.0657298  -0.8774538
  -0.0700829   0.1835427  -0.0372269  -0.6320066  -0.7647074   0.6105963
   1.0412387   0.6675563  -0.0753465   0.1252217  -0.1600232   0.1721890
  -0.5075921  -0.6887256   0.4732618   0.9689136   0.5195612   0.5967614
  -0.1324692   0.2974727   0.3654081   0.2334510  -0.0053109  -0.0998933
  -0.0401268  -2.2011724   1.4947575   0.1725600  -0.1481650   0.0916358
  -0.5866991   0.0570852   0.1046012   0.6313344  -1.2540886  -0.8527249
   0.2756967  -0.2599771  -0.2125163   0.2120203   1.1514031   0.2127250
   0.6968243   0.0703424  -0.6140181   0.2349241  -0.2527901  -0.0222816
  -1.3105314  -0.7245833   0.8721308   0.2850507  -0.3322763   0.4262860
   0.0121568  -0.0143295  -0.0551268  -0.7971033  -1.0640545   0.3494034
  -0.3533860  -0.4945393   0.0899965   0.0857491   0.0159870  -0.0313411
   0.6995515   0.5116301   1.1024054  -0.0691353   0.6339195  -0.7984151
   0.3872392  -0.2692391  -0.0612588  -0.0910482   0.4720101   0.6867249
  -0.2898001   0.3055112  -0.9513975   0.0991151  -0.0393697   0.1179586
  -0.3068807  -0.4954030  -1.2181017  -0.6553830  -1.5009100  -1.4659125
   0.2475262  -0.3021049   0.0154651   0.1707941   0.0126353  -1.0772836
  -0.6694916  -0.3700829   0.3201475  -0.2003932  -0.3466172  -0.0473743
   0.6594859  -0.5677920  -0.4171237   0.1582005   0.8940940   0.2214758
  -0.0894839  -0.1649610  -0.0138933   0.0841190  -0.7111777  -0.1549705
  -0.3119558  -1.6824090  -0.0278659  -0.0136850   0.1054557  -0.0887064
   1.6093498  -0.1544799  -0.6822055   0.2139759  -0.3276497  -1.4932950
   0.0747670  -0.1368275  -0.1988709   1.2367306   0.2244898  -0.0288473
   0.1216929  -0.8163063   0.2748291  -0.0256155  -0.0927510  -0.0269670
  -0.7303475   0.3880890   0.0927190  -0.5077364   0.2696846  -0.8916458
   0.0687301  -0.0621106   0.1381583   0.5921715  -0.2763572   0.5781520
   0.7955712  -0.5863804   0.0540233  -0.2294516   0.1607315  -0.2384114
   0.7019338   0.0814892  -0.4037342  -0.1675733  -0.1878668  -0.4398107
  -0.1300552  -0.0342428   0.1582795  -0.1809475  -0.0616815  -1.4041868
   0.3531812  -1.8802819  -0.4789451  -0.2853984   0.3916100   0.0405392
   0.5375568   1.4475169  -0.5495024   0.5018752   0.0668865  -0.5202971
   0.4463048  -0.1171398  -0.3682749  -0.0825853   0.5329312   0.1799160
  -0.6434745  -1.1768705   0.0700216   0.0356772   0.1341387   0.1796938
  -0.7318828  -0.6231060  -0.2994095   0.7195349  -0.5728141   0.0928506
   0.0433826  -0.1760965  -0.0927087  -0.4587449  -0.9570585  -1.0528176
   1.4473871   0.4269384  -0.4178352  -0.0615740  -0.2385648  -0.1957808
   0.5573323   1.6375725   1.0069541  -0.5543409   0.3172388   1.0681291
   0.3399771  -0.3663559   0.0519790  -1.0659575  -0.1816958   0.0473636
   0.3105914  -0.0807327   0.3098726   0.1783846  -0.2452903   0.2148227
  -1.8548712   0.3533056   0.4646456   1.8338083  -0.1920341   0.5426250
  -0.0724389  -0.0180595   0.2876123   0.1030774   0.3486038   0.7403150
   1.2803842  -0.9197083  -1.3397448  -0.2369211  -0.0307878  -0.0173872
   0.2648202  -1.0741730  -0.0278557  -1.0790056   0.4262690   0.1384977
  -0.0136321   0.0508507   0.0827525  -0.2849927   0.9688967  -0.1940074
  -0.6091716   0.1269255  -0.1191050  -0.2149197  -0.1018799   0.0053190
   0.4138083  -0.2414937   1.5550675  -0.4460593  -0.1793655   0.6550392
  -0.0943853  -0.0035785   0.0704278   0.2256370   1.4200777   0.4615604
  -1.4257722  -0.3753084   0.0614387  -0.0579683  -0.1395532   0.0009949
   1.0747741   1.1277881  -0.2143121  -1.6453129  -0.3653188   0.8351117
  -0.2790450  -0.2580949   0.0656424   0.1671606   0.1690683  -1.3228116
   0.0739493   0.0349571   0.1311494   0.1415183   0.0383125  -0.0426405
   0.8305951  -0.8917212  -0.0425913  -0.2569194  -0.7973621  -1.2028674
  -0.1012917  -0.0236475  -0.0153724   1.5000566  -0.1543949   1.0757301
  -0.3886685   1.4189190  -0.4368209   0.1742333  -0.4685312   0.3092277
   1.0094016  -0.2730642   1.3480129   0.2089678   0.7981214  -0.2541957
   0.0455951  -0.0185398   0.4134909   0.0493879  -0.0097345   1.2932788
   0.9903496  -1.3423884  -0.3235576  -0.0533256   0.4019306   0.0465600
  -0.5309674   0.1815835   0.9304854  -0.1961010   0.7343423  -1.2266533
  -0.0830228   0.1613482   0.0154095  -0.4752101  -0.0889598  -1.0219796
   0.5197676  -0.2789874   0.2000560  -0.0115509  -0.2775015  -0.0996167
   0.8938103   0.1257792  -0.4054762  -0.2550613   0.6365064  -0.8833511
  -0.1661862   0.0688307  -0.0186294  -0.2703731  -0.1605510  -0.2596614
   0.7034855   1.5084170   0.3968574   0.1494817   0.0752042   0.0832539
   0.1093499  -0.9182733   0.4397969  -1.5024101  -1.2169641  -0.8924088
  -0.0601494   0.1573024   0.2994882  -0.1238112  -2.0170908   0.8217606
   0.1612236   1.5175213   1.6997505   0.1321507   0.1624902  -0.2330865
   1.0168568  -0.8555359  -0.6628727   0.0963613  -0.4334756   1.3574988
   0.0376218   0.1548253  -0.2643908   0.4790289  -0.9086263  -1.2023506
   0.7721612   0.2990379   0.3060549   0.2618442  -0.3413138   0.3083034
   0.4735359   1.0317930  -0.3985935   0.1118155   0.9604813   0.3712969
   0.3489696  -0.0008159  -0.1964000  -0.0075119   0.7475173  -0.4573151
  -0.3777134  -0.9014081  -0.3828221   0.1336893   0.2225152   0.0304685
  -0.6553978  -0.3486424  -0.8625340   0.3921826  -0.3445429  -0.0498651
  -0.0148669  -0.3214822   0.0088014   1.4275211  -0.3357482   0.9464129
   0.3327406   0.5314047   0.7427461   0.0465206   0.0456164   0.1745604
   0.3495884   0.1386261  -0.0540227  -0.0927217  -0.1514928   0.6734959
   0.1688563   0.0412265  -0.1305368   0.5523574   0.9145644  -0.6036677
  -0.7195828  -0.1505663  -0.0142298   0.1218953  -0.0373491   0.0004390
  -0.0795740   0.8787873   0.5826800  -0.6516291   0.1838984   0.5295968
  -0.1296511  -0.0516663  -0.0462452   1.0377842  -1.1805686  -0.9892139
   0.1778936  -0.1738080  -0.2875326  -0.1528653   0.0311560   0.3218558
   0.0008703  -0.2978004   0.0871138  -0.9448038   0.7952934  -1.2320455
  -0.1071654   0.1409619  -0.1006290   0.0074939   0.7905430   0.0532420
   0.4495869  -1.1288127  -0.7985664   0.0977074  -0.1438836  -0.3918270
  -0.0865768   0.6183456   0.0113057  -1.0524901   0.5873582  -1.0276155
  -0.3211504  -0.1705478  -0.3182772  -1.0479931  -0.2559734   0.6399266
  -0.6465234  -0.5539491  -0.8496922   0.1125529   0.0913806   0.0475863
  -0.9858909   0.2002089  -0.8805502  -2.0914011   0.8634203   0.0891247
   0.1245742   0.1428633   0.1645416   0.7819441   0.5037553   0.2880440
  -0.7973146   0.8189540  -0.2852957   0.0838824   0.3744201   0.0982558
  -0.3413121   0.6979964   1.3043047   0.0513681  -0.4107713   0.2829097
  -0.1267893  -0.2823322   0.3579219  -0.1727757  -0.5278111  -0.3208039
   0.9210550   0.1316172  -1.4033188  -0.2566205   0.1369309   0.2678636
   1.0087367   1.3042643  -0.8518619  -1.2207237  -1.6847217  -1.0690051
  -0.4547292   0.0978694  -0.1075356   0.6599258   0.1842643  -0.6836452
   0.9773421   0.8165115   0.4357816   0.1607913  -0.1488458  -0.5131610
   0.4063754  -0.1761244   0.5581340  -0.1009751  -0.3246436  -0.8511894
  -0.0686188  -0.0798138   0.0284977   1.4707510   0.0158784   0.3403041
   1.3373504   0.8169869  -0.7442645  -0.0273507   0.2093022   0.0701538
  -1.6689792   0.9958978  -0.5271661   0.4813502   1.2362546   0.6424156
   0.0239049  -0.1861908   0.0549987  -0.6377792   1.3834710   0.9721305
   1.7480069  -0.0591712   1.5777785   0.0770776   0.1214064  -0.0256761
  -0.8524341  -0.0984676  -0.7130674  -0.1018076   0.2491704  -0.8186093
   0.0767607   0.1442616  -0.1731765  -1.1166672  -0.0241239   0.1650117
   1.5422620   0.3776836   1.1414652  -0.1071343   0.2317621   0.0458082
  -1.2542510   0.0398357  -0.8057638  -1.3521382  -1.4638472  -1.2150834
  -0.0340820   0.1114025  -0.2316980   0.2589249   0.0759288  -0.2355475
  -0.1728071  -0.6352888   0.7039189   0.0093374  -0.0241033   0.1994547
  -0.3548924  -1.3167982   0.5376605   0.6840168   0.7497866   0.0526403
   0.2032488   0.1096259  -0.0495187  -1.3126634   1.0178179   0.8803063
  -0.3881448   0.6389337  -0.1374537   0.2590226   0.3190890  -0.0472407
   0.3004799   1.4603556   0.7996661   0.0050163  -1.1083504   0.2813545
   0.1383958   0.1667617   0.0805316   0.1523660   0.3067735   0.2952895
   1.5355641   0.1929912   0.2007488  -0.4028968  -0.0640588  -0.0554078
   0.6413810   0.2505151   1.1066706  -0.1955999   0.5861214  -0.1702634
   0.4090058  -0.2507607   0.1241642  -0.1605014   0.5425736  -0.1619105
   0.6611714   0.7547966  -1.0585235  -0.3596174   0.1968515  -0.3190495
  -1.3986905   0.1232628   0.5233949  -0.3105874  -0.6190029  -0.3864402
   0.1826481  -0.0483455  -0.2991361  -0.6845818   0.0132018  -1.0481526
  -0.2175702   0.2949215   0.6656131   0.1693217   0.2102890   0.2402890
   0.8878266  -0.6755406  -0.3887170   1.3522608   0.7508364  -1.4729062
   0.0389933   0.3140002  -0.1012392  -0.2040891  -0.0078031   0.0316548
  -0.8762277   0.0658118  -0.0674514   0.0146531   0.1761141  -0.2355940
  -0.1967853   0.1190820  -0.4710042   0.2587605  -0.7300379   1.3364295
   0.1001709  -0.0145136   0.1302317  -0.9918751   0.5938871   1.3506255
  -0.0932755  -0.9210085  -0.4017537  -0.0535415  -0.0196016   0.0605241
  -0.6521567   0.4684996  -1.8738585   1.3890340  -0.3171986   0.4576052
  -0.1532761   0.0524938  -0.3213068   0.2392953   0.0596074   2.4101665
   1.2062804  -0.3119016   1.0105804  -0.1275935  -0.1572661   0.2571697
  -0.1010384  -0.8723657  -1.0552670   0.5248761  -1.2893237  -0.5948388
  -0.2307045  -0.0946114   0.1047555  -0.7220868   0.2551720  -0.9423403
   0.1357397  -0.8625576   0.5409834  -0.3467759  -0.1612632   0.2449783
  -1.5716394   0.7487968  -0.3311027   1.4337529  -0.4369359  -1.1783141
   0.1164395  -0.1080955   0.1136239  -1.3434449  -0.7814987   0.5108973
  -1.3512964  -0.5205382  -1.2492031   0.2398812  -0.2039321  -0.1645288
  -0.8873384  -1.4009475   0.0737066  -0.6762460  -0.3971262   0.7954864
   0.1341677  -0.3299068   0.1372656   0.0144782  -0.8887187   0.1384719
  -0.9113069  -1.1122916  -0.1155199   0.2724708  -0.1737974  -0.1097909
   0.4791010   1.0034269   0.5227585  -0.8334118  -1.8265108  -1.7309448
  -0.0429953  -0.0277516   0.1433635   0.6919516   0.1489950   1.2672162
  -0.4854778  -0.3717869   0.1457777   0.1693654   0.1173051  -0.2829742
  -0.0933581  -0.1460760  -1.4220835   1.5911187   1.1960189   0.9708485
   0.0731499   0.1914319  -0.0990322   1.2308396   0.1709447   0.4055269
   0.4196805   0.5879502  -1.7856245  -0.0940690   0.0105393  -0.0802112
   0.6545234  -0.7627713   0.7239955   0.7920286   0.7410108  -0.0536816
   0.1420743  -0.1860666  -0.0898021  -0.2715640   0.3727619   0.1025740
   0.7470075   0.8157160   0.2519761  -0.1099290   0.1445522  -0.0788854
   1.3888658  -0.6669030   0.2564663  -1.1704890  -1.7102927   0.1707401
  -0.1032271   0.1506862  -0.0283825   0.2428595   0.2325200   0.0070750
   0.0319233   0.5689420   0.6489710  -0.1909036   0.3237419   0.2535597
  -0.0725321   0.2215431  -0.3271122   0.3775332  -0.5750439  -1.4298099
   0.2256710   0.0782580  -0.1948431  -0.1390018   0.3316867  -0.5216969
   0.1964636  -1.6067219   1.6345277  -0.1005821   0.1434022  -0.0163189
  -0.9657024  -0.6951624  -1.4256272   0.2285719  -0.6755374  -0.1179186
   0.1110093   0.1058053   0.0538223   0.8729084   0.3347708   0.4836875
   0.5371406  -2.0345352  -0.5201338   0.0625533  -0.0165678  -0.2686064
  -0.8350067   0.4741015  -1.1893395   0.9506474  -0.7406663   0.8414302
   0.0271837  -0.0747354  -0.0749885  -0.0058297  -0.0757046   0.2061873
  -0.0869304  -0.0079980   1.1212314   0.1851769   0.0099752   0.3084662
   1.2463875   1.3036104  -0.3207799   0.0330956  -0.9170415   0.5749449
   0.0930982  -0.2051542   0.2198002  -1.0558636   0.9665999   0.1950932
  -0.0362061  -0.1415153   0.1372478   0.0484756  -0.0110800  -0.2377892
   0.8780132  -0.2261723   0.6837783   0.4474036  -1.2633826  -0.9640857
   0.1764642   0.1692707  -0.1299719   0.2041827   0.4362875  -0.5831460
   0.4464716  -0.3625887  -0.3673349   0.4464796  -0.4133417  -0.1852473
   0.1461760  -0.4965985  -0.0973530   0.2171124  -0.4674493  -0.2156827
  -0.2371562  -0.0365911  -0.0359507  -0.7215225   0.3154628  -0.5372424
   0.0780889   1.5311697   0.5004792   0.2259983  -0.1403679   0.4542655
  -1.2699188   1.7708125   0.2476985  -0.8611814  -1.5990667  -0.9233235
   0.1368280  -0.1014254   0.3742692   0.6878738   0.4408526  -0.2785920
  -0.7501743  -0.2970042  -0.8988274   0.2760394  -0.0315640   0.1534653
   0.7164242  -1.1478468   0.3607204   0.3782239  -1.1600935  -0.8061854
  -0.0485921   0.1768110  -0.3212146  -0.5763492  -1.0223707  -0.0542282
   0.8365501  -0.8608689   0.5746458   0.0590482   0.1985873   0.6242628
  -0.7971096  -0.6952358  -0.5277662  -0.9785531  -0.9551844  -0.1421310
  -0.0955305  -0.0891899  -0.2259379   0.5543960   0.1235399  -0.5506315
   0.3708972   0.5219200  -0.6882236  -0.0985494  -0.1312971  -0.0775746
  -0.3423738  -0.2939532   0.1785739  -0.8572899  -0.0491843  -1.2511024
   0.2552813   0.2651685  -0.0705134   0.5963130  -0.5752201   0.0491593
  -2.3349822  -0.0845757  -0.8134134  -0.0030420  -0.2320854  -0.1204807
   1.6263326  -1.5189024  -0.0298118  -0.8397087   0.4877570  -0.6627108
   0.0067321  -0.0015257  -0.0169367  -0.6906034  -0.6784479   0.1068037
  -0.6670849   0.6186712  -0.0297436   0.0009695   0.2132639  -0.0693844
  -0.0453994   1.7394066   2.2354715   0.2944357   0.3710779   0.6733378
   0.0529635  -0.1405584   0.3125811  -0.0664247   0.5898245   0.2321263
  -1.0142900   0.5409622   0.2108061  -0.1770476   0.1427259   0.2265556
   1.4759469  -0.2243278   0.2923994   1.0406432  -1.2025222   0.5071611
  -0.1793572   0.0455056  -0.1331468   0.6317306   0.7910341  -1.3052957
  -0.7091868   0.0187182  -0.0530655   0.1500822  -0.3018114  -0.1080009
   1.7103882   0.2028814   0.3935422   1.3545258   0.7956796  -0.8203430
  -0.0868150  -0.2641094  -0.3578914   0.0026442  -0.0552935   0.4946240
   0.8888227  -0.8521882  -0.4223876  -0.2602633   0.2974829   0.0328843
   0.3688728  -0.0023294   0.8141518   0.2540690   0.6995789  -0.8457756
   0.1765701   0.2385988   0.1635405  -1.1464896  -0.4788211   0.2974074
  -0.0564277   0.2098486   2.0858750  -0.0083418   0.3443309   0.0164357
  -0.0928420   0.1858377  -0.0250471   0.7765962  -0.1716027   0.0951825
  -0.4504828  -0.0039701  -0.0089318   0.7049904  -0.3294528   0.6473272
   0.8869372  -0.1687956  -1.2042190   0.2190214  -0.1305668  -0.1326158
  -0.7244003  -0.4793303  -0.6728498  -0.3857937  -0.2174746  -0.1874119
  -0.0458040   0.1979224  -0.2074390  -0.3273044   0.1829033  -0.5625114
   0.1027652  -0.3722046  -1.4524323   0.1310183  -0.1385059   0.1103812
  -0.7361183  -0.0181594   0.3091872   0.0462433  -0.2780611  -0.4947284
   0.1198001  -0.0018382   0.0203206   1.4393480   0.4546877   0.2583222
  -0.7620566   1.0093846  -0.0288541  -0.1281769  -0.0434940   0.2428309
   0.4672680   1.5348012  -1.5438416  -0.0658624   1.0001104   1.7060382
  -0.1638331   0.0035619  -0.2614637   0.8371167   0.2319439  -0.1836655
  -0.4956931   0.3471402   0.4653945   0.3961550  -0.0498524  -0.1353320
   0.2122896  -0.4421307  -0.8498452   0.4044285   0.8357084  -0.0504250
   0.1629595   0.0474600  -0.0761314  -0.8129994  -0.4675820  -0.4612306
  -0.6862835   0.5259629   0.2638467   0.0751956  -0.0757335   0.1053919
  -0.2467082  -0.3065945   0.7850318   0.8816919   1.7072906  -0.8523107
  -0.1978887   0.1418553  -0.3428500  -0.8021600  -0.6857297  -0.3295851
   0.0355236  -0.5778900   0.9152979   0.1959273   0.0754575  -0.3689264
  -0.1064245  -0.0745406   0.3633243  -1.0781840  -0.9647818   0.8846299
   0.1087046   0.1468802   0.3242322   0.6791993  -0.2014904  -0.0545683
  -1.7045289  -0.9884170   0.2340846   0.0184834  -0.1133338   0.0988891
   0.8217595  -0.7271600   0.4361359   0.4679374   0.4560669  -0.3807638
   0.3095338  -0.0538568   0.0156004  -0.5283833  -0.4112063   0.8932604
  -0.8516462  -1.2574838   1.2193675   0.1700554   0.0228498   0.4331155
  -0.3473896   0.4754752  -0.1990806  -0.8085879  -0.0423659   0.4221224
   0.2129198  -0.0703880   0.4187604   0.3819533  -0.6612158  -0.1608451
   1.0755898   1.2208322  -0.2747581  -0.5003037  -0.1806572   0.1052938
  -0.2017238   0.7663426   0.6213611   0.6391205   0.3399754  -0.1294525
   0.0047165  -0.0274344   0.2957212   0.6753838  -1.0630672  -0.4302478
  -0.6360189  -0.8260507   0.4996963  -0.1199560  -0.0728176   0.0457298
  -0.3979325  -0.2849709  -0.1297564   0.1325907  -1.2052977   0.2774977
   0.2533250   0.1001054  -0.4250242   0.3397627  -0.5430522  -0.9226311
   0.2888047   0.4475691  -0.5968801  -0.2010136  -0.1339347   0.0352773
  -0.2314534  -0.7253642   1.2309875  -1.4343461   1.1463060  -0.0515312
  -0.2419533  -0.0282405   0.1187771   0.4301852   1.2078252   0.3442501
  -0.6632689   0.1613010  -0.2337906   0.3965662   0.1528694   0.2401902
  -0.7454400  -1.2147573  -1.2055663  -0.4025924   0.4743614  -0.8138799
   0.1485296   0.2300631   0.1518261   0.6697274  -0.4239169  -0.0202688
   0.2354966  -1.0252105  -0.1939121   0.1920985  -0.0289571  -0.0528254
  -0.5070946  -0.1163497  -0.4919757  -1.3495196  -0.0845922  -2.2594776
  -0.3167300   0.1059113  -0.0316191  -1.4887021   0.7385805   0.8223364
  -1.1866169   1.5461925  -0.5246246  -0.0527331   0.0344721   0.0945291
   0.9310939  -0.3828170  -0.7410755   1.4125214  -0.6535664  -0.1883886
  -0.0135152   0.0227641   0.0110938  -0.8435937  -0.9111714   0.5632645
  -0.6543843  -0.5307904   0.6193041  -0.0069611  -0.1261721   0.1725385
   1.3906323   0.9484565  -0.6904875   0.2738860  -0.7193639   1.0499550
  -0.0824225  -0.1540414   0.0746073   0.4994054   0.3001034  -1.0195363
  -0.0524626  -0.4343781   0.1187328   0.1999904  -0.0940881  -0.2771488
  -0.7382748  -1.0753849  -1.4859909  -0.4627809  -0.7248062   1.2452247
  -0.1917048  -0.3270220   0.2056440  -0.6392641   0.3317908  -0.1293460
  -0.9644374   0.2317767  -0.4726793  -0.0138207   0.2462542   0.1063089
   0.2308451  -0.0600767  -0.2700681   1.0788639   0.3496469  -1.6341535
  -0.0769895   0.1454286  -0.0321061   1.4636655  -0.2568374   1.1852766
  -1.3089538  -0.1174912   0.1740051  -0.1199811   0.0113531   0.3564129
  -1.3814038  -0.0824392   0.1808026  -0.8931941  -0.1964545   0.3884605
   0.3646168  -0.1446770  -0.1284686  -1.2054602   1.0445529  -0.1780947
  -0.3352445  -0.0222533   2.3072326   0.0700998   0.0489490  -0.1367814
  -0.1243330   0.3514346  -0.7426072  -1.7022693   0.1394724   0.2839999
   0.0335663  -0.1296688  -0.0608797   0.1595870   0.2330241   0.6581631
   0.2448462   0.5277807  -0.2970529  -0.2862870  -0.1341997   0.0544934
   0.0701367  -0.7691734  -0.6952351  -1.3202807  -0.7946323  -0.3011147
   0.4942009   0.2690955  -0.2238843   0.3299946  -0.6124673  -0.1087488
  -1.7960732  -0.0099952   2.0973632  -0.0341786  -0.0748494  -0.0991384
  -0.2978557  -0.0546643  -0.5161887   1.1191170   0.5258434   1.3690765
  -0.1427353  -0.0528789   0.0743867  -0.7277348   0.8543103   1.8164191
   0.8514119   0.6320304   0.0818271  -0.1739576  -0.2298272  -0.2842057
  -0.5513663   0.7366497   0.0489001   0.3610190  -0.4655144  -0.4937774
   0.2491152  -0.2100155  -0.1864329   0.2710107  -1.1610034  -0.5994230
  -0.1108002   0.4530583  -0.1981327  -0.2762311  -0.0088955   0.1151063
   0.2426159  -1.2051387   0.1850496   0.2346189  -0.8165601   1.0615268
   0.1598466   0.3607836   0.0219336  -0.2126620   1.0385662  -0.4798557
   1.0348812   1.1319485   2.3436122  -0.0664605  -0.0897877   0.1097359
  -0.7152996  -0.6434784  -0.4444442   1.3874165  -0.1533455  -0.1271286
  -0.1824362   0.2222908   0.0146537   0.3329645   0.4156573  -1.5861852
   0.0038877  -0.6440519  -0.5493017  -0.1196530  -0.0944789   0.5345967
   1.4935055   0.0497220  -2.9463317   0.0572747   1.9929284   1.8609591
  -0.1321157  -0.1007074  -0.2858275  -0.8573804   0.0868438   0.8088362
  -0.4747413   1.2662965   0.6076878  -0.1047341   0.3299662  -0.1887299
   0.5615631   1.6543903   0.8937892  -0.0548907   0.1649892  -1.1336994
   0.2979132  -0.0955132   0.0274378   1.2892643   0.1709040   0.4422188
   1.2598690   0.8570377   1.2645162  -0.2816620  -0.1650547   0.0690646
  -0.2006480  -0.1686618   0.0132424   1.0077924   1.3297441   0.9301724
   0.0362662   0.0114925   0.0910143   0.3338273  -0.9042395  -0.1725782
  -0.6427552   0.8837735  -1.3851285   0.2792720  -0.1798895  -0.2259740
  -0.8989119  -0.0340518  -0.9504711  -0.9156736  -0.6385202   0.8683413
   0.3940153   0.2300411   0.0972343  -0.8854675   0.7899020   0.6618401
   0.2179071  -2.0143521  -0.6326933  -0.1580003  -0.0718288   0.0049568
  -0.0293207  -0.7895445   0.7260418   0.1097594  -0.4593189   0.3271990
  -0.0080478   0.0896518   0.3074523  -0.1413287  -0.2584796  -0.5550047
   0.9978945   0.0540774  -0.9837426  -0.3869566  -0.0633864   0.1002847
  -0.2537292   0.7663618   1.4693696   0.9870461  -0.9380016   0.7663829
   0.1388990  -0.0818967   0.3342314  -1.2772766  -2.0995555   0.3678567
   0.4147350  -1.5921439  -1.6620085   0.0492131   0.4173395  -0.0190966
   0.5665589   1.5134526   0.6731685  -0.6417368  -1.2692754   0.1499455
   0.0384127  -0.3371539  -0.2491429  -1.1052365  -1.8023869   0.0228185
  -0.7834839  -0.1110870  -1.1050888   0.1263468  -0.1028296   0.3774258
   1.0602851  -0.0480439   0.8895522  -0.3161280   1.8790238  -0.1663561
  -0.1653320  -0.0596425  -0.0871178   0.0015752   0.7343375   0.8341501
   0.1912676  -0.0250084   0.7727659   0.3709014  -0.1042587  -0.0449481
   0.3094458  -0.4992580   0.0940607   0.2871143  -0.2268701  -0.3404182
  -0.1241604  -0.2212950  -0.0126980  -1.3823044   1.6020565  -0.4955534
  -0.6291034   0.3413529   0.6983051   0.0378112   0.1598125  -0.4479403
   1.2355946   0.5137668  -0.1154504   0.5653979  -0.6071729  -0.1622237
  -0.0261345  -0.0550150   0.0225582  -0.2813020  -0.0693493   1.8311011
   0.7578551   0.0276854   0.4865457  -0.1122613   0.0334788   0.0340985
   0.4369551   0.4558371   0.6179302   1.3214612   1.3085028  -0.3277498
   0.1558544   0.2750712   0.1111564  -0.0316824   0.5233864  -0.0587666
  -0.7105175  -0.2430799  -0.1222554   0.1351801  -0.1629481   0.0843856
   0.7581484   0.5672420  -0.3394473   0.3074584   0.2125343  -0.2349318
   0.0625221  -0.1676977  -0.2093029  -0.3735663  -0.7726069   0.1013209
  -1.9447798   1.0093092  -0.1090823  -0.1389156   0.0581408  -0.3114035
   1.1065875   0.2072283   0.7174779  -1.4853299   0.1933802   0.6661409
  -0.0947255   0.1708106  -0.0182895  -0.8050585  -0.2465806   0.0207871
  -0.1739020  -1.7873960  -0.5992973   0.2126136  -0.0437237  -0.0060701
   1.4838555  -0.0392557  -0.1678328  -0.8127149  -0.7035865   0.1912686
   0.1423993   0.0618224   0.2064902  -0.0744195   0.0452800  -0.1364368
   1.2000811   0.5421831  -0.6849274  -0.1447576  -0.1840660  -0.2243396
   0.8551683   0.8211983  -0.5118647  -1.6697855   0.2913087   1.5868196
  -0.4222139   0.2060693  -0.1953815  -0.2884373  -0.5007675  -0.2871526
   0.3649328   0.2414822   0.7565865   0.2021680   0.1652842   0.1339311
   1.4893342  -0.4047962  -1.7160286  -0.4287204  -0.4303001   1.6355391
   0.6289778  -0.0326062   0.2375026  -0.8370769   0.7662876   0.4294077
   0.3718466   0.4865692  -1.7581538  -0.0376013   0.1273494  -0.2717285
  -1.1198670   1.2088300   1.3037735   0.8546414   0.2705536   1.3420140
  -0.0488963   0.2668026   0.2290705   0.4010614   0.6516216  -0.5367784
  -1.0056018   0.1661093  -0.2791068  -0.1596057   0.0045285  -0.0128015
   0.1944888   0.1697425  -0.0347933   0.4379061  -0.4903169   1.2892812
   0.0630782   0.1780196   0.2971406   0.7172159  -0.2890861   0.7272065
   2.7863762   1.5252230  -1.3580378  -0.1213438   0.0591184  -0.3032469
  -0.7302727  -0.6621625  -1.2879257  -0.5832343   0.8758072  -0.0416032
  -0.0787221  -0.0339706  -0.3976687   0.0179153  -0.2867184  -0.6747242
  -0.5850651  -0.5314382  -0.4804290  -0.1320928  -0.0680626  -0.1643271
   0.8848646  -1.5048093  -1.0468932  -0.7570920  -0.1512142   1.2183393
   0.0823809   0.0157261   0.1687853  -0.0951580   0.1556799   0.0747104
   0.2706222  -0.6025925  -0.4449664  -0.3691394   0.3923296   0.2024641
   0.4404686   1.1368306   0.8539386   0.1502334  -0.4689915  -0.0270572
  -0.0081606   0.2234691  -0.0332655   0.1533161   0.7387739   0.2163070
  -0.3724261   0.5025008   0.5175328  -0.2206424   0.4566934   0.1319713
   0.0827070   0.6940814   0.5557134  -0.4750745   0.1542919  -0.1619909
  -0.2902887   0.0670187   0.1629419  -1.6697327  -1.6014374  -0.4458920
   1.2467701  -0.3376002  -0.0132037   0.1434817   0.1587594  -0.1761221
  -0.1571162  -1.5022219  -0.8227126  -0.9603474   0.4848084  -0.4091276
  -0.2632874  -0.1414570  -0.2162388   1.2632500  -0.3487675   1.0273374
   1.0167509  -0.4361815  -0.4326707   0.1190312   0.1214932  -0.1091999
  -0.4724602   0.4120695   0.3293768  -0.0653507  -1.4604596  -0.2734699
   0.1644384  -0.0443332   0.0884694  -0.9339531   0.9270166  -1.0169889
  -0.6927940  -0.2390537  -0.9501234   0.0593300  -0.0402738  -0.1120802
  -1.3643531  -0.0898429  -0.0898582  -0.6546477  -2.0149236   0.5066137
  -0.0984330  -0.3242678   0.0590820  -0.2196355  -0.3319754  -1.7279570
  -1.2792212  -0.6853718   1.5920998  -0.1309476  -0.2157063   0.0359290
   0.4214911  -0.9528708  -0.2037778  -0.5201224   0.6401852  -0.2448519
  -0.1379100   0.0539327  -0.2478938  -0.0019673  -0.0003955  -0.9088269
   0.3525811   0.6736727  -0.0432639  -0.1832985  -0.2830860   0.0396102
   0.0528098  -0.8784465  -1.4076992   0.7642384  -0.2318590   0.1974167
  -0.1802525  -0.2082256  -0.1221295   0.3497144  -0.7948493   1.0637132
  -0.0590053   1.1224025  -1.5366160   0.2831557  -0.0285386  -0.0647795
  -0.3538384   1.6752297   0.8577990  -1.2040935  -0.2374475  -0.6406177
   0.0599312   0.3047348  -0.2581880  -1.1307919   0.0560372  -0.4591113
   0.0125703   0.1495630   1.1361331  -0.4159124  -0.2457384   0.0386575
  -1.1511590   0.0431489   1.8380823  -1.1872540  -0.6244412   0.2240923
   0.0108508   0.1730781   0.0938325   0.9684320   0.5401685   0.1088210
  -0.6222796   0.6015294   0.6112152   0.2620397   0.1765856   0.2250973
   0.6658120  -0.3198451  -0.3725727  -0.7555425   1.1264975   0.2735879
   0.2816450   0.1895995  -0.1621558   0.8936056  -0.8855423   0.0172104
  -0.3069094   1.1162612  -0.7673469   0.2420536   0.3164134  -0.1440168
  -0.5282478  -0.6219417   0.5684183   1.0826726  -0.0552460   0.5000562
  -0.2200193   0.2217531  -0.2197304  -0.1773416  -0.5624153  -0.7068142
  -0.5126687   0.2844864   0.6787997   0.2109631  -0.1001387  -0.0654404
   0.3755285   0.0754065  -0.3689273  -0.4944389   0.2717022  -0.6427439
   0.0826162   0.2211810   0.3024503   0.0469836   0.0141930  -0.5355763
   0.8160944  -0.6516833  -1.8517677   0.2451421  -0.4265358  -0.0277363
  -0.3008842   0.0711609   0.3293310   0.0529720   1.1172305  -0.2525649
  -0.1825534  -0.2910515   0.0067041   1.6497996  -0.4061493   1.6996422
  -0.4742997   0.2211927   0.7713267   0.1223902  -0.0244833   0.0200892
  -0.0894493   0.7739114   1.2601346   1.3412098   0.1369126  -0.0643016
  -0.1172656  -0.2658005   0.2723956   2.3540869  -0.9773126   1.3048080
   1.1530790   0.8427444  -0.6987929   0.1164453   0.0813135   0.2899995
  -0.2691056   0.7406502   0.6279144   0.8737383   1.2223893  -0.7127594
   0.5493869  -0.1061264   0.0054091  -0.2757697   0.0774137   0.8173796
   0.8009670   1.2869041  -0.9400668   0.4404867   0.1018196  -0.3706097
   0.6176285  -0.4652373   0.9617610   0.0628619  -0.2325336  -1.8453707
   0.3095224  -0.1077264  -0.0250977   1.1344087   1.1842026   0.1361029
   0.2521940  -1.2802281   0.2931059   0.1831183   0.0944826  -0.0248425
  -0.4774506   0.1423691   1.5641816  -1.8333455   1.8465682   0.3833645
  -0.1976965  -0.0613343   0.2876517  -0.1393838   0.5481479   0.0638564
  -0.1443555   1.1292297  -0.7687593  -0.1501007  -0.0116775  -0.0166905
  -0.8788951  -0.4925267   0.5287460  -0.5113731  -0.5301695   0.1410987
   0.2570279  -0.0020828  -0.1432303   0.2331562   0.4215495   0.5033383
  -1.2935609  -0.0769787  -0.6073987  -0.1107202   0.1384421   0.0871231
   1.0272963   0.4171829  -0.3588659  -0.1679014  -0.2801686  -0.1065482
  -0.0531915  -0.1119652  -0.3553967  -0.3230518   0.6636187   0.5135446
   0.4174883  -0.0225467   0.3766194  -0.3053599  -0.3000554   0.0904184
   2.0889106   0.0700623  -1.6291187   1.4698964   0.8983577   0.0696607
  -0.1216836   0.3202981  -0.0589407   1.3179049  -0.0445530   0.2087517
  -0.9815344   1.4289259   0.9161525   0.1911066  -0.1163463  -0.0370617
   1.1596271  -0.6898077   0.5393897  -0.9915811  -0.3948174  -0.4312178
   0.1468313   0.0888160  -0.3415340   0.8291722  -1.6046635  -0.3532146
   1.0297332  -0.0963311  -1.2594334   0.2690538  -0.0734836   0.1394223
   0.1694448  -1.1359723   0.0025743  -0.5223495   0.4044957  -0.0261427
  -0.0718983  -0.3405210  -0.1138942   0.1335058   0.2627437   0.2003463
   0.4722328  -0.5472041  -0.7859274  -0.3100191   0.0218734  -0.2440234
   1.1369834  -0.7159782  -0.2165253   1.5608650  -0.9266587  -0.3097032
   0.1983921  -0.0775078  -0.4483816   0.1179603   0.7687530  -0.1832197
   0.0514529  -0.3008973  -0.7623857   0.2647570  -0.0935269  -0.1213170
   2.0555050  -0.2538430   0.6441877   0.6335686   0.5470454   2.2842753
  -0.0967490  -0.0992862   0.0241231   1.4078852   0.2708637  -0.5332111
   0.5461329   0.4579893   1.7660490   0.3242517   0.0208412   0.1567110
   1.3964084   0.5356989   0.5878745  -1.1880627   1.0163908   0.8971679
  -0.1922882   0.2143793  -0.0131678  -0.9169717  -0.1264154  -1.0820996
  -1.4684305   0.6649891  -0.5614262   0.1654015  -0.0057499   0.0302308
   0.3377586  -0.5772027   0.7715299  -0.4696404  -1.6853534   1.3952851
  -0.1644903  -0.2912502  -0.3817583   0.2890212  -0.6723880  -0.6794443
  -0.2372625   0.2286109   1.0623503   0.2514019  -0.2317188   0.1332565
   1.6775097  -0.8572310  -1.0305279   1.7443501  -0.1999264   0.0896434
  -0.0644924  -0.0126317   0.1323747   0.1454102  -0.5034121  -0.4801674
  -0.0007518  -0.1189710   1.0802464  -0.1202761  -0.0783854   0.1726895
  -0.5894857   0.7644141   0.2053407  -0.4160673  -0.1915863   0.4808289
   0.1502415  -0.0628671  -0.0641995  -0.8146563  -1.3453531   0.3554881
   0.0591625   0.1031804   0.2919739  -0.0352255   0.0526269  -0.1883930
  -0.3916691   0.5480416   0.0878413  -0.2611895  -0.1008132   0.9288045
  -0.0260517   0.3104292   0.2062362  -0.6468918   0.7063733  -0.2435029
  -0.0192170   0.7205346  -0.2315621  -0.5265405   0.0404315  -0.1439470
   0.0343937   0.9940958   0.0712607   0.7743492  -0.9939206   0.3516716
   0.0763023  -0.2096493   0.0253102   0.1382229   1.5666239   1.5488427
   1.2568325  -1.2092105   0.0042823  -0.2015461   0.3816970  -0.1317578
   0.4293526   1.9374129  -0.7380979  -1.0311737  -0.5311251   0.2733698
  -0.0996024   0.2602989   0.3584335   0.1221634   0.8623450  -1.4239961
  -0.5559430  -0.8237063  -0.1233320   0.2409064  -0.2320836   0.4667229
   0.6544531   0.1045670   0.2244124   0.3675206   1.8674361  -0.1561481
  -0.0800364   0.2190190  -0.0827307  -0.1656244   0.3463116  -0.7046623
   0.1982618   0.1694627   0.8118795  -0.1114499  -0.0989809   0.0561469
  -0.8918994  -0.2596337  -0.5320538   0.0047336  -1.2476336  -0.1091971
  -0.1171796   0.4123723  -0.1552559  -1.0255903  -0.9990447  -0.7152284
   0.2775984   0.9992064   0.9922422  -0.2213764   0.1408559  -0.0410595
  -0.5949743   0.2006498   0.9327155  -0.7100556  -0.3106263   0.0479494
   0.3871589   0.2964508   0.2090456  -1.8493590   0.0798176  -0.1224531
   1.5133981  -1.7876544   0.2862702  -0.0695507  -0.0164316  -0.1037690
   1.3497626   0.1024347  -0.4742152   0.1429679   1.7964714   0.3480230
   0.0205775   0.3080875   0.0526554   0.7903250   0.2749927   0.4545780
  -0.9225944   0.9792955  -0.4068876   0.2322318   0.0686110  -0.1507816
  -0.3629769   0.9559370  -0.1559220   1.0609204  -0.1421517   1.4902310
   0.0385740  -0.1678149   0.1832655   0.4110967  -1.4203745   0.8672875
   0.1823858   1.7984568   0.0458895  -0.3054703  -0.0612803   0.0513075
  -0.8146671   0.6227766  -0.0039409   0.2339200  -0.1426031   0.0148823
  -0.0610035  -0.2581114   0.1474507   0.1612025  -0.8694105  -0.0788736
  -0.9906399  -0.4961690   0.6817461  -0.1339939   0.0917335  -0.0257412
   0.3929335   0.0013444   0.0778643  -0.0732664   0.4030112  -0.1555586
  -0.2616681   0.0669368  -0.0775733   0.1028118  -0.6538680  -0.0573414
   0.8895752   0.4524741  -1.0151941   0.2501290   0.2036248   0.0658770
  -0.3118502  -0.0027482   0.6175371   0.0215399  -0.9112813  -0.0732809
  -0.0695888   0.1053779   0.1843041  -0.6288528   0.0333470  -1.4655836
   2.3165548   1.6324295  -0.0062636   0.0619098  -0.0323661   0.4015373
   0.7713670   1.3371005   0.7047116  -0.2886787   0.0632867   0.9344717
   0.1392711   0.0180958  -0.2275497   0.7011200   2.0108283   0.0453955
  -0.6936805   0.1481823   0.2289749  -0.0229109   0.1923248  -0.0529698
   1.3575652  -0.5251999   0.1632669   0.9092328   1.1798503   1.6218280
  -0.1322177   0.1013722   0.1943929  -0.9942854   0.6015790   0.1191869
   1.6799092   1.4491699  -0.1162161  -0.2757702   0.2451870   0.5732445
  -0.3805270   0.2679200   0.3942043  -0.2043813   0.6938329  -1.1398160
   0.3459339   0.0807631   0.2610760  -0.9066027   0.5779867  -0.0248113
  -0.3473642   0.6303903  -0.1015125   0.2398432   0.1524991  -0.1772486
  -0.7813711  -0.2132477   0.7680879  -0.6734251  -0.1132299  -0.1370057
  -0.0252942   0.2789656   0.0141512  -0.0484040   0.1776220   0.6277487
   0.8500614   1.0754266   0.3220090  -0.0366181   0.1850133   0.3193378
   0.8552182   0.4644543   0.1436396  -0.2070955   1.0747054  -0.8206794
   0.0858862  -0.1622647   0.0236701  -0.3912042   0.2124906   0.6270483
  -1.3862789   0.0911440  -0.6867250   0.1399705   0.2654104  -0.0610577
  -0.6905878   0.6023012  -0.7393565   0.6790859  -0.2663447   0.2902382
   0.3554544  -0.0375361  -0.0130978  -0.3160595   0.8160382   0.1409711
  -0.1846826  -0.8297065  -0.4563406   0.2716254  -0.0356135   0.1116465
   0.1925744  -0.8752742   0.3722182  -0.1328077   1.2664388   0.5773420
  -0.0184504   0.0863983   0.2507909   1.8520997  -0.5279960   0.4847167
  -1.0866667   1.0283012  -0.1814592  -0.0185197  -0.1854417   0.0215832
   1.2541231   0.6404654   1.0048186   0.1251675  -0.4485704  -0.8441662
   0.1601196   0.2182483  -0.1786461   0.3124878  -1.1718127  -0.1653951
  -0.4839922   0.2360273  -0.4925735  -0.0782290  -0.0395435   0.3131777
   0.4233519   0.2423935   0.1753706  -0.3383932   0.0718946   1.4235435
  -0.0068669  -0.0361680   0.0393142  -0.1185843  -0.5677925   0.3847758
  -0.1704076  -0.8246346   0.2825775   0.2338848  -0.2201646  -0.0121037
   1.5231992   0.4826054  -0.8891653   0.3440621   0.6818636   0.4685048
   0.2060968   0.0467521   0.0219347   0.8451383  -1.1074598   0.0727693
  -0.0840403   0.2798864   0.0540696   0.0390723   0.0405692   0.2642142
  -0.2417029   0.3468682   0.5536597   0.0764931  -0.3268757   0.6539111
  -0.0183866  -0.1996397  -0.1259216  -0.5909770   1.1123041  -0.2919904
   0.3017220   1.6296502  -0.1710006   0.0194136   0.0403853   0.4902802
   0.6339921   1.3215482   0.3309417   1.1648605  -0.0211404   1.3221811
   0.2038314  -0.3851229   0.0724673   0.5093771   0.4599569   0.4000969
   0.6404825  -0.7300380  -0.3009283  -0.0492910  -0.1250089  -0.0286895
   0.3102735  -0.8519602  -1.0692040  -0.0188723  -0.6054512   0.1428422
   0.0566371  -0.1950464   0.3384982   0.6242920   0.9712270  -0.0968274
  -1.5124940  -0.8121673  -1.3286090   0.0499146   0.1575077  -0.2771512
   1.0508411  -0.5152570  -0.1541015  -0.1950625   0.8682902   0.1247983
   0.0419061   0.0207792   0.0943446  -1.5080380  -0.4366462  -0.4152870
  -0.6079861  -0.7550917   1.5530849   0.0274132  -0.0631011  -0.3161455
   0.2588380  -0.9217986   0.5504350  -0.2093699  -1.2784404   1.2260598
  -0.3192354  -0.2088255  -0.0768152   0.3108565  -0.0473184   0.2409860
  -0.4143044  -1.0833240  -0.9600185  -0.2118633  -0.0962169  -0.3760050
   0.2652205   0.7147561  -1.2835149   0.4851553   0.0620288   0.5067939
   0.0033126   0.4717973  -0.1568067   0.1578090  -0.4812743   0.4008326
   0.6719016  -1.1487914  -1.2071019  -0.2492707  -0.1172284  -0.0059508
   0.2885256   0.5255786  -0.1322730  -0.1862506  -0.6852140   1.2136251
   0.2915477   0.0356078  -0.1614936  -0.3864067  -0.6334926  -0.8619639
   0.2330678   0.1892280  -1.0001545  -0.0607739  -0.2121429   0.1145538
   1.2092117  -0.3424614   0.6785325   0.5677117   0.2102691   0.0873493
  -0.1176539   0.1710132   0.2528747   0.0498017  -0.1044917   0.5269231
  -0.7113966   1.2049724   0.1663007  -0.1562604  -0.1471151  -0.0680604
  -0.4207183   0.2711880   0.6192747  -0.3929807   0.6926211   0.6736568
  -0.0843517  -0.1824200  -0.2086260  -1.5400840  -0.1884069   0.4197206
  -0.2830062   0.2013437  -0.1472216  -0.1746914   0.1631003   0.0953709
   0.5743392  -0.8974656  -1.1831175  -0.8668849  -1.3967226  -0.1423611
   0.0740536   0.1409067   0.1689257   0.2170943   1.0011777   0.3556446
  -0.0457547   0.5291319  -1.5011666   0.4139036  -0.1113841   0.2086188
  -1.5697732  -0.5162663   1.1218591  -0.7439681  -0.3883494  -0.3234635
  -0.2321048  -0.0411908  -0.3353529  -0.1239860  -1.0328985  -0.2424430
   1.1107191   1.5181576   1.0762235   0.1742451   0.1249480   0.0624527
   0.2435313   0.2105665  -1.2345711   2.9188614   0.0114374  -1.0233005
   0.1515682   0.4449375  -0.2952100  -0.7894347  -0.3954333  -0.4699403
   1.2148485  -0.9156848  -0.0462070  -0.0583833   0.1178990   0.0285362
   0.8268017  -1.6248468   1.1325719  -0.3218393  -0.7656465  -1.1188512
  -0.0896401  -0.0588817   0.4075305  -0.1762935  -0.3516468  -1.2166891
   0.4571909   0.2130336  -1.1881533  -0.1021181   0.2446057   0.0736704
   0.6873627  -0.8627235  -0.2851216  -0.1841454   0.1168872   0.6848516
   0.1428218  -0.0600941   0.1074334   0.1232836   0.7798268   0.5274252
  -0.7219887  -0.4092328   1.0935049   0.0683222   0.1864369   0.1605532
  -1.4224724   1.0456523  -0.7595569   0.7639819   0.6355295   0.0638851
  -0.3900630   0.1336015  -0.2301407  -0.3167928   0.7295400   1.6792953
   1.0272777  -0.6080245   0.3060177  -0.1424502   0.1895207  -0.1594278
   0.2515201  -0.2545265   0.6659706  -0.6259556   0.3054194   0.6606576
  -0.0024166  -0.4376116  -0.0480022   1.2749292  -0.3782567  -0.3703847
   0.2962728   0.0348898   0.6283624  -0.0435204   0.0315618   0.0410268
  -0.6089923   0.8507295  -0.9852187   0.2687235  -1.4007289  -1.1527127
   0.4954756  -0.5604615   0.5174651   0.2844244  -0.5954684   0.7693811
  -0.6055135  -1.1387315   1.5946498  -0.0325389  -0.2001494   0.0037270
  -0.2849162   0.0840670  -0.0884381   0.9344784   0.4686862  -0.8804009
   0.1249008   0.2682891   0.2944498  -0.6926390  -1.0259937   0.5241241
   0.5504377   0.6471877   1.6775630  -0.2745568  -0.0103118  -0.1565654
  -0.0783306  -0.7065754   0.7290208  -0.2453874  -1.5480304  -0.5068494
  -0.0917346  -0.3874704  -0.1435115   0.8048899  -1.4628370   0.6937510
  -0.5024920  -1.5433776  -1.1633408   0.0294891   0.1043588   0.2013729
   1.6320074   0.4991892   0.6866299  -1.1144704   0.5429096   0.6852282
   0.0487003   0.0046832  -0.3228286  -0.1207891   0.3132881   1.3303879
  -0.9363874   0.1092431  -0.0591213   0.2578399  -0.1076705   0.0093611
  -0.5609751   0.8877897   0.3890703   0.3648440  -2.1061513  -0.2422763
  -0.0222460   0.0387398  -0.1039869  -0.2353224   0.4200133  -0.0726298
  -0.0016237  -0.2082031   1.2854605  -0.0382472   0.1004488   0.1241617
  -0.6567382  -0.0544638  -1.4452424   0.2958783  -0.2162842   0.6034085
   0.1343874  -0.1672424  -0.2329222   0.3678863  -0.3570503   1.1616008
  -0.3978284  -0.8392997  -1.0342128  -0.1578107  -0.1647727  -0.0926900
  -0.6626005  -0.0836773   0.5507460   0.7520424   1.9015470   0.4992077
   0.2042926  -0.1730818   0.1237083   0.0498221   0.4934863   0.7719138
  -0.5766970   0.1636695  -1.3116586  -0.0430808  -0.1149971  -0.2407762
   0.5206445  -0.8260006  -0.8155063  -0.2196327  -0.5545019  -0.1752252
  -0.0631221   0.1990518   0.0539624  -1.4958535  -0.9841260  -0.7393194
   0.1617601   1.5833447   0.3884626  -0.0724324  -0.0389715  -0.0337092
   0.7440032   0.3654611   0.7238083  -0.3345844   0.6418558  -0.0535913
   0.2527826   0.1192279   0.1020672   0.6752756   1.0338644  -1.2224352
  -0.0443644   0.1756422   0.1255479   0.1532649  -0.2654210  -0.0499555
  -0.7580327   0.4474647   0.0462732  -1.4439106  -0.1421030  -0.4806834
   0.0474195   0.0314013  -0.1535173  -0.5896183   0.3511287   1.3143370
   1.5601997  -0.0584370  -0.8187524   0.0844802   0.1817467  -0.0715176
  -0.3709069   0.0657108  -0.4088882  -0.0120417   0.0310085   0.2285780
  -0.2114170   0.1125666   0.0059894  -0.3736394  -0.5197970  -0.1681663
   1.8712788  -0.6375801  -1.1423018  -0.2975509   0.0184141  -0.1054165
   0.6198984  -0.0808067  -0.9299470  -0.6564182   0.5740363   0.5805879
   0.0084183  -0.2637284   0.0674471  -0.2489886  -1.1346518  -0.6687819
  -1.3351665  -0.4706932  -0.6011406   0.1644631   0.4326330  -0.0227701
   0.1497655   0.8357074   0.5917692   0.1083901   0.6028225  -0.8171561
   0.3453673  -0.1452657  -0.0802181   0.6583171   0.4261364   0.5267375
  -0.1366793  -0.0793686   0.6131830  -0.0186314   0.2536312  -0.0523293
  -1.0475694   0.0877401  -0.9852449   1.1906247  -0.2511218  -0.7637619
   0.0708618  -0.1597937  -0.2784243   0.0361072   0.4104130  -1.1419920
   1.5371230   1.0214761   0.7718728   0.1115240  -0.0147439   0.2610979
  -0.1297546   0.2314736  -0.3500936   1.1300284   0.7337324   0.0358175
  -0.4214796  -0.0379563  -0.1557050   0.0900328   0.5975085  -0.2665793
   0.8957929  -0.1265379  -0.2310900   0.2343511  -0.1414111  -0.3851897
  -0.5475387  -0.6071699   0.2714471  -1.6000243  -0.9455115  -0.1374613
  -0.1071125   0.1557992   0.2602655   0.5128169   1.7281170   0.9220151
  -0.1462489  -1.4055929   0.3556705   0.1001897   0.0709836   0.0708012
  -1.1989094  -0.5480343   0.4038186  -0.0343231   0.0277392   0.9780722
   0.1285071  -0.3447177   0.1944898   0.1465672   0.8235573  -0.1713761
   0.6921637  -0.5528589   0.3776255   0.0011243  -0.0790556  -0.2158209
   0.0038220   0.2462529  -1.0928986  -0.1604679  -0.6181414  -0.3237164
   0.4547784   0.2005694  -0.1361690  -0.0851606   1.2655542   0.2690628
   0.7296417   0.7080674   2.1970508   0.1360270   0.1795169   0.1438599
  -0.1660644   1.3343194   0.8694602   0.5805404  -0.2919580  -0.6654283
   0.1266812  -0.2041368  -0.0791937   0.5541989   1.0595461   0.2446247
   0.6686491   0.2042879  -1.1280097   0.2894556   0.2432868   0.1554161
  -1.7760552   0.6173550  -0.6209202   0.7328806   0.3483831  -0.4977525
  -0.1798931   0.0543653   0.1734020   0.4558834  -0.6081882   0.2987098
  -0.6709020   1.0604748  -1.1397047  -0.0207144   0.1355258  -0.1600112
   0.0466500  -0.1044853   0.1941418  -0.0701319  -1.1310703  -0.3850367
   0.1394116  -0.0913758  -0.0619034  -1.3103721  -0.9252331   0.4219545
   0.1857811   0.6162873   1.8314022  -0.0372812   0.1172000  -0.2060811
   0.2631576   0.0573193   0.6141278   1.5504214   0.7383518   0.3289866
  -0.1407304  -0.2005973   0.1760218   1.1839176  -0.9932718  -0.0827043
   0.4050382  -0.1130895   1.7025312  -0.0060138   0.3352439   0.1848601
  -0.3745606  -0.1409596   0.1864420   0.1103840  -0.5093513   0.8010605
  -0.3544233   0.4297249  -0.2784153  -1.4218572  -0.2858751   0.7606369
   0.5523363  -1.3653649   0.1560462  -0.1585194   0.1133956   0.1321436
   0.2277864   0.1353795   0.8857580  -0.5575041   0.3472102  -0.6825398
   0.4907599   0.1377666   0.5302404  -1.2325811  -0.3234743  -0.4985234
   1.3518637   0.3101297  -0.2714928  -0.0042835  -0.1527712  -0.1711101
   0.1633269  -1.4387095  -0.4355185  -0.3026325  -0.9952457  -0.6317284
   0.0009717  -0.0633277  -0.3503722  -0.0018020   0.2382744  -0.6857450
  -0.4447164   0.1941185   0.6612194   0.0994370   0.1818317   0.2331703
  -0.7470996   0.4997392  -1.2158036  -0.3525008  -0.0559263  -0.2881635
  -0.0817110   0.3068574   0.2637488  -1.3213205   0.1586294  -0.3744113
  -0.7581781  -1.4764810   1.1416980  -0.0472290   0.1417720   0.2843639
  -1.6518477  -0.2212899   0.9369462  -1.6633440  -0.6068802  -1.3745240
  -0.1228921  -0.0793084   0.0852944  -0.2738430   0.3760241  -0.5426376
   0.1025194  -0.0300916  -0.3519371  -0.2210101   0.0085543  -0.1397976
  -0.4438730   0.8245820   1.3167623   0.9570702  -0.0835199   1.0880955
  -0.1667003   0.0492847  -0.0262894   0.2280015   0.0169505   0.3684081
  -0.1970330  -0.2557194  -0.7208668   0.0923728  -0.2266018   0.0169502
  -0.0635866  -0.0707993  -0.1036713  -0.3597364   0.8949378  -0.5575379
  -0.3608724  -0.2004281   0.1515514   1.0867233  -0.1155239   1.1908422
  -1.7013086   1.1096140   0.7481565  -0.1638701   0.0420177  -0.0074387
  -0.6844360   0.7293395   1.4061176  -0.5462651  -0.7768669   1.2200322
  -0.2691706  -0.0377555  -0.2779019  -0.1106628  -1.7014812  -0.4917352
   1.2330502   0.4289870  -0.2564971  -0.0599807  -0.0814146   0.3182745
  -0.1779968  -1.0826297   0.9409174  -0.7308912  -0.1985954   0.5557057
   0.2958294  -0.0074330  -0.2431193  -0.2567666  -1.3335462   0.7546936
  -0.0329057   0.0002535   0.3946520   0.2218875   0.2659234   0.2151985
   1.8384639   0.5923035  -0.2153263  -0.5208548   0.3031728  -0.7109085
  -0.2861844  -0.0259105   0.1007695   1.5281363  -0.4610175   0.0947710
   1.4313370  -0.5859833  -1.1952330   0.0813163  -0.0316698   0.0431147
   1.4114097  -0.6079673  -0.9898295   0.9973360   0.5955124   0.6704615
  -0.1663918   0.0465689   0.1272300   0.5770015  -0.2298537  -0.6052993
   0.3376406  -0.6133274  -0.5957566  -0.2186149   0.1439384   0.1536907
   0.2130906  -1.1108452  -0.4150379  -0.4634083   0.9243407  -0.2691510
  -0.1027888   0.0129091  -0.0932770   0.2351990  -0.9645323   0.6149274
  -0.2467665   0.4844487  -0.1192462   0.2241369  -0.0200314   0.6772574
  -0.2305388  -0.5394447  -2.1612675   0.4458935  -0.3931723  -1.6579853
  -0.4211590  -0.0181073   0.1326853  -0.1276564  -0.2604543   1.5958323
  -0.5990159   0.8169220  -2.0199180   0.0916410   0.3073622   0.1845091
   1.1612409   0.2131762  -0.7547691  -0.0674966  -0.0954960  -0.1121357
   0.1809553  -0.0568508   0.1082124   1.2252005   1.8976774  -1.6101434
   0.2619360  -0.2308790   0.9512820   0.1755648  -0.1392182  -0.0100038
  -0.0521463  -0.5932719  -0.9727504  -0.7316871   1.7069963  -0.3368440
   0.2171914   0.0339883  -0.0368146  -0.4425917  -1.0564852   0.0554367
  -0.0433791   1.6438859  -0.2749492  -0.2479987   0.0272075  -0.1250497
   1.2839128  -0.6579621  -0.8814512   0.1311097   0.3374352  -0.6088492
   0.0169092  -0.1577357  -0.4226554   0.1746087  -1.9622068  -0.4980188
   0.8175176  -0.2934067   0.0963148  -0.2215927   0.2082725  -0.1759589
  -0.8210409  -0.2364248   0.6851395  -0.5124868   0.5966008  -0.0553426
   0.0537653  -0.1700265   0.0981940   0.5032281   0.6227672   1.3003982
  -1.2364769  -1.5726001   0.4480901   0.2637439  -0.1668866  -0.3732945
   0.5545927  -1.2990755  -0.4266488   0.5543228   0.4757045  -0.6946499
  -0.1350772  -0.2491050   0.0752267  -0.4936480  -0.7310424  -1.0137295
  -0.3049839   0.6668530   1.1293125  -0.1384392   0.0845049  -0.2336600
   0.1943636  -0.0288002  -1.1566210  -1.0889497  -0.4658737  -0.8846758
   0.0636461  -0.0843579  -0.0103565   0.8114514  -1.1653471   0.0557416
  -1.0518188   0.7379816  -0.3226523   0.0010070   0.1790078  -0.1596384
   2.3948696  -0.5150924  -1.3855841   0.0495717   0.2868250   0.4669495
   0.1791126  -0.3880208  -0.4487125  -0.4407238   0.2034767   0.5216731
   0.2488624  -0.3132168  -1.4896271   0.2030626  -0.4159175   0.1233610
   0.9342521  -0.2763905   1.3143300  -0.8537149   1.1277816   0.7981622
   0.1194705   0.0943378   0.1115855  -0.0503405  -0.7909913   0.1586732
   1.1248962   1.0871235  -1.2379094  -0.2879558  -0.3061146   0.0006543
  -0.2988745   0.1350984   0.1248288  -0.5203673   0.2552201   0.3906679
  -0.3403723  -0.0425044  -0.1742176   1.1524955   1.0403519  -1.0439787
  -0.4932106  -0.2357701   1.0896918  -0.2072468  -0.0052972   0.3256681
   0.2109292  -1.4442986   0.3199935   0.0643433   0.7529727   0.6658725
   0.2267840  -0.1658772  -0.0219275  -1.1931087   0.5095087   0.0010149
  -1.9178338  -0.1176707   0.9106889   0.3384432   0.1999256  -0.2445608
  -0.3053749   1.3829145   0.8871388   0.7377161  -0.5714814   0.3670002
   0.0126406  -0.0129498   0.6133193  -0.8386266  -0.5344734  -0.1061392
  -0.8141367   0.2966098   0.1323551   0.3394020   0.1733034  -0.1189106
  -0.3559104   1.5940270   0.1314344   0.4494364   0.0600516   0.7402362
  -0.0522715   0.1165157  -0.1099364  -0.5166696   0.0088575  -0.5061763
  -0.6689591   0.9394076   0.2175141   0.1141474  -0.1805391   0.0884165
  -1.9991148  -0.2394689   0.5474367   1.7169970   0.5177217  -0.1618254
  -0.2163808  -0.1271634   0.2004169  -0.6118433   0.1823702  -0.2201649
  -0.1934429  -0.1222348   0.6429166   0.2571480   0.0556989   0.0875183
   0.5526183  -1.1347746   0.5512862  -0.4544118   1.7608833   0.1008452
   0.1704343   0.1552142   0.2037253  -1.3290731   1.3863143  -1.1392478
   1.3722061  -0.0226016  -0.5606705  -0.1506691  -0.0349738  -0.0391066
  -0.4115067   0.3298215  -1.0204730   0.3099652  -0.1133166   0.6715186
   0.0112202  -0.2810548   0.1276551   0.5447185   0.3675563  -0.3101909
   0.8764704  -0.1976246  -0.1574516  -0.2167028  -0.2094336   0.2276757
   0.5798923   0.4545977  -1.3738922   0.8991693   0.0581887   0.3866531
  -0.1836970   0.0066071  -0.0722572  -0.2752207   1.2126713   0.8069047
   0.7252674   0.0529421   0.4500743   0.2568108   0.0708514  -0.0357093
  -0.6818900  -0.7528037  -0.0019721   1.0570821  -0.2277081   0.1831029
  -0.0904413  -0.0348500   0.1672391   0.5502492  -0.5030866   0.3554193
  -1.2879617   1.2355922   1.2791508   0.2848410   0.0060997   0.0324678
   0.8047174  -0.7498176   1.1495029  -0.8111233   1.6575712  -1.0179741
   0.1650241  -0.0527377  -0.1248618  -0.8724834   0.1540909  -1.0204726
   0.3946883  -1.0426077  -0.0962849   0.0801256   0.2274802  -0.0782787
  -0.2417265   0.6561565   1.6968796  -0.2335809  -0.5233093   0.2556126
   0.1762587  -0.2206585   0.1188398  -0.8836960   0.9364920   0.2570032
  -0.2305795  -2.0148478   0.2136363  -0.0653242  -0.1929819  -0.2415527
   0.5298412   1.0759273  -0.2762144  -0.7789419  -0.3364578   0.8432687
  -0.1504267   0.2180146   0.3642487  -0.6493921   0.9289290   0.4660968
  -0.5747375   0.5077447   0.7556287  -0.0331609   0.0040369   0.1373075
  -0.2388954  -0.6734231   0.7553259   1.5329208  -1.4605159  -0.2285867
   0.1346761  -0.1316041  -0.2165497   0.8050285   0.2399104  -0.8370114
   0.3087704   0.0142375   0.9946083  -0.0356849   0.0231001  -0.0455111
   0.1470352   0.4894240  -0.7722730  -0.2169631   0.4026771   0.2582357
  -0.0660471   0.0953166  -0.0336004   0.8007126  -1.2668309   0.3182046
  -0.3447875  -1.4229664  -1.8175836  -0.4013768  -0.1152779  -0.2610253
  -0.1314258  -1.1247486   0.3630300   0.3973221  -0.3912623   1.3934889
   0.1128874   0.5243137  -0.1232211  -0.4359683  -0.8267843   0.1197236
   2.4648590  -0.2590427  -1.5302914  -0.1583930  -0.1175316  -0.1351820
  -0.6372854  -0.0450786  -0.0408706  -1.2004503   0.6025440   1.0229326
  -0.1116875   0.0962364  -0.1254598   0.2878085   0.0188679  -0.4430033
  -0.8555657   0.1582382   1.5482661  -0.2352414  -0.0841208  -0.1649227
  -0.0098518  -1.0538801   0.2768329  -1.5433192   0.1275383   0.0939156
  -0.0218661   0.0948242  -0.0055422   0.2972002   0.0744653  -0.4156618
   1.4912249  -1.1678940   0.0402926   0.4500491  -0.2428971   0.2531868
  -0.8766686   0.7672490   0.4577794   0.0716248   0.4160656   0.3290156
  -0.0554828   0.0417443   0.1753388   0.9779795  -0.0349480   0.1869532
   0.6993170  -1.0143012  -0.9598365   0.0439688  -0.0675705   0.1422423
   0.0220689   0.0733541  -1.0979468  -0.5875748   0.4935301  -0.8623292
   0.5332065  -0.1118154  -0.1434656  -2.2072129   0.0522946  -0.6513371
   0.8840897   0.1242308  -0.6078027   0.0521515   0.0356651  -0.0236301
   0.3301157   0.5362066  -0.3484648  -0.4535199   0.4081119   0.2795270
   0.1031894   0.1965412  -0.2090406  -1.1453949   0.3787629  -0.4189182
  -0.3746662  -0.8553188   0.1305202  -0.0205508  -0.5518410  -0.3731841
  -0.6355128   0.4944823   0.3659294   0.7631434   1.3493069   0.4023407
   0.2421717  -0.0497364  -0.0869823  -0.6569489   0.5551230  -0.9815582
   1.5349436   0.5209570   1.0295589   0.1279053  -0.3068909  -0.0247454
   0.2498473  -0.2086605   1.4485087   0.3906924   0.5108992  -1.1258513
   0.2702682   0.1089526  -0.1391921  -0.9982480   0.6687213   0.3086230
   0.1489055  -0.6188985  -0.3324802   0.2630515  -0.0857531   0.1797456
   0.2713549   0.6686411  -1.4563690  -0.4045669  -0.2934294   0.0742618
   0.0440860   0.0385144   0.0527859  -1.0996093  -0.3053688   1.4490324
  -1.0398020  -0.4552269  -0.5012103   0.2279603   0.0192771   0.1486863
  -1.5292721  -1.3408527  -1.9451003   0.2228694  -1.0974308  -0.5882787
   0.3140951  -0.0678536   0.0050024  -0.7205698   0.7426876   1.1404405
  -0.5466305   1.1202606  -0.4252365   0.0124800   0.1291287   0.2243043
   1.2529626   0.8698688  -0.8721789  -0.3617024   0.0867618   0.1142736
   0.0225021   0.3425835   0.1311819  -0.7927710   0.6578566  -0.1138001
   0.1986518   0.6583210  -0.7180887  -0.2603033   0.0129683   0.0122723
   1.4767920   1.3425839  -1.4461520  -1.0326713  -1.1067560   0.3970403
   0.0946172   0.1862374   0.0211696  -1.0882766  -0.1340211  -0.2678777
   2.5059876   0.0786705  -0.5267000  -0.0837620   0.1420864  -0.3340157
  -0.2380410  -0.3069680  -0.7990007  -0.5781243  -0.5332922   1.1254795
   0.2541032   0.1043181   0.2075645   0.6938145   1.4467021  -0.7088954
   0.1469131  -0.8345402  -0.0656118   0.0043717  -0.2451518   0.3469017
   0.2743000   0.2506495   1.0199543   1.0480883  -0.4085854   0.1672069
  -0.5706649  -0.3538195  -0.0398062   1.1734636  -0.9765936  -1.0740201
  -0.4626315  -0.7024663  -0.2078026   0.1443910   0.1429045   0.0923957
  -0.5194334  -0.2165639   0.1964150  -0.9846822  -0.9952344   0.2525979
  -0.0741875   0.0757500   0.3019206   0.7741305  -1.3322445  -0.6521125
   1.2519509   0.1630393   0.1103608  -0.1021936   0.0513331   0.0783789
   0.0500495  -0.6552502   0.2860969   0.7238289   0.0478258   1.6586142
   0.3434704  -0.0499583   0.0300005   1.3314109   0.5843191   0.1984685
   0.8407502  -0.3052756   0.7172176  -0.1899301  -0.0240227   0.1579561
  -1.4196669  -0.2945043  -0.8555293   0.4870810  -0.6011131  -0.1567594
  -0.1521037  -0.1125166   0.0702931   0.6236224   0.1279524  -0.8139995
   0.1093199   0.4792943  -0.4915746   0.1049855  -0.3085758   0.2791622
  -0.0634947  -0.6139091  -0.0380110   0.0789883   0.1550813   0.4712919
   0.2497464  -0.3384979  -0.0197695  -0.5059277   0.6298296   0.5924401
  -0.4738587   0.3283380  -1.1028585   0.1528924  -0.1367657   0.0284147
  -1.7032793   0.2829409   0.5343898   0.0967585  -0.4776614   0.3084009
  -0.0064676  -0.0916846  -0.3186243   0.0088829   1.4461813  -0.6812669
   0.0358319  -0.4298280   0.5072943   0.0245872  -0.0538333  -0.0641712
  -0.0607813  -1.3637810   0.5310221   0.4280019  -0.2261177  -0.8003561
  -0.1381028   0.1393100   0.0065896  -1.4817436   0.6991771  -0.6517361
   0.5937601   1.5671121  -0.3833351   0.1895532   0.0465401   0.1359015
  -0.0725000  -0.8536695   0.8515723  -1.0015875   0.4792697   0.9435504
   0.0133085   0.2271054  -0.4029476  -0.8499626  -2.1521759   0.1761992
  -0.5292972   0.6166366   0.3103011   0.0843804  -0.1074271   0.2419956
   1.0991194   0.7802812   0.6261632   0.3924361  -0.3352897   1.3260610
   0.0719048  -0.1854836  -0.2040256   0.9168560   0.0086469  -0.8269693
  -0.0462813  -1.7354357   0.4970694   0.1410150   0.1981831   0.1348038
  -0.0742514   0.3158535  -0.0582410   1.1083764   0.0525272  -1.1099366
  -0.2157273   0.0593236  -0.0001439   0.6191611  -0.3445929  -0.5951342
   0.2406434   0.2488140  -0.6466635  -0.1607582  -0.1869687   0.0886731
   0.5951587  -0.0101881   1.4084264   0.5320810  -0.8981852  -0.2743228
  -0.1290210   0.1002549   0.1189430   0.8804370   0.7313252  -0.5173079
  -0.6423671  -0.5996864   1.3485857  -0.2123425  -0.1404279   0.2528968
   1.7723966  -0.3539756   0.3942297   1.1731657  -0.7474692  -0.2171247
   0.1524941  -0.2942148  -0.1806901   1.2150791   0.3971739  -0.5364767
   2.0353925   0.1331829  -0.1465762   0.5050232   0.0292076  -0.0865269
  -0.0863461  -0.6456148   0.4130121   1.4166961   1.6073747   1.0054817
   0.0784038   0.1039152  -0.2525421  -1.2582403  -2.2172601   0.8261082
  -0.6908951   1.6811527  -0.4547505  -0.0351418  -0.2664244  -0.0707007
   0.7130291   1.1379975   1.3198541  -0.7953265  -0.2239654   0.3074137
   0.1403004  -0.1569111  -0.0232545  -0.4656827  -0.0337546   0.1856590
   0.0080342   0.5553430  -0.3456905   0.1049324   0.2430128  -0.1600858
   0.0269488   0.1160244   0.4103626   0.3752376   0.1060029  -0.0204154
  -0.0432221  -0.0247617   0.0823711   2.4492764  -0.8512230   0.3474555
  -1.6662883  -0.0467449  -0.2034846  -0.3614485   0.0670730   0.2273975
   0.4211212  -1.8182447   0.2247144  -0.3036768   1.2555645  -0.5860670
   0.1205375   0.0496056  -0.1522261  -0.3611547  -0.2027589  -0.6906771
  -0.4417628  -0.4696243   0.6724173  -0.1194478   0.1278730   0.0977903
  -0.8782666   0.3843853   0.7490891  -0.3595405   0.7798899  -0.1788453
  -0.1187437   0.1856025  -0.0923132  -0.1921848  -0.0739871   0.8861881
   0.0193846   1.1480438  -0.7428101   0.2606333   0.0378233   0.1489693
  -2.0954542   0.5575835  -0.8766042  -0.1030828   0.7704999  -0.4698112
  -0.1783615   0.1090509  -0.1225102  -0.1652919  -0.1564038  -0.4579720
   0.0969367  -0.0457717   0.4316606  -0.2756172   0.1890830  -0.5506936
  -1.3328719  -0.3520400  -0.2556846   0.4218500   0.2414000   0.3465426
   0.0455961   0.3206758   0.0653991  -0.2443210   0.3598859  -1.0773609
  -0.0043433   0.8027275  -0.2158231  -0.1566893  -0.0411584  -0.1315238
   0.6220487  -0.6802908  -1.5847701  -0.3795606  -1.7088007  -0.9486355
  -0.1543360  -0.2076826  -0.1164763  -1.3760633  -1.0497917  -1.0628263
   1.0970846   0.1209997  -0.5403338   0.1605390  -0.1381865   0.0999757
   0.4079003   0.5059016   0.1914995   1.2930226  -1.1349146   1.2254461
   0.0694791   0.0477998   0.1044445  -0.8090807   1.3300509   0.8265225
   1.3432997   0.2515372   0.6293133  -0.0681724  -0.1854058  -0.0955704
  -0.3984002  -1.0269052   0.4008940   0.6221236   1.4243224  -0.1595758
  -0.3346907  -0.1365554   0.3605580   0.4805568   0.4681110   1.1401516
   0.3549557  -1.7963308   0.0365565  -0.0471254  -0.1320692  -0.2753628
  -0.9158263  -0.2684763  -0.0568511  -0.3811750   0.9465101   0.2065241
  -0.0333694   0.1129374   0.1721752   0.0773401   1.1358093  -0.6904349
  -0.6255941  -0.7179192   0.3229780  -0.1525116   0.3969985  -0.0488911
  -1.4479288   0.1802887   0.3666459   0.7787491   0.4924653  -0.8101324
   0.0738205  -0.1508725  -0.1126501  -0.0497375   0.8533295   0.2924608
   0.1236745   0.8179291  -0.2773614  -0.1540316   0.2142388  -0.1419833
   0.1437209  -0.4577195   0.0924727   0.2086268  -0.4675654  -0.8648568
  -0.2696443  -0.1213009   0.0559813   0.0040513   0.2540863   0.3431701
   1.9031363   0.2257827  -0.8192465   0.7059420   0.1091014  -0.1028207
  -0.7296207   2.2125857  -0.3714622   1.1981999  -1.1594294  -0.4942537
   0.3116181  -0.0152087   0.2173436  -0.6225523  -0.9230186  -1.4546261
   2.3261948  -0.6454681   0.4049998   0.0432622  -0.1422679   0.3186447
  -0.7400859   0.6392879  -0.5178759   0.7717857   1.1279384  -0.0962163
  -0.2977548   0.0261393   0.0877653   0.4387840   1.2797734  -0.3485983
  -0.1939363  -0.0126921  -0.1448418  -0.1117081  -0.0554552  -0.0837653
   0.5088064  -0.8310363   1.5543132  -0.1285507   0.3052163   0.8012108
   0.0384354  -0.3622709  -0.2307365   0.2722153  -0.3713919  -0.2929047
  -0.4280699  -1.5676857  -1.1295363  -0.1200093   0.0737283   0.1356581
   0.8012211   1.8149441   0.6558843   0.5615242  -0.8937555   0.8959015
   0.0121047  -0.0033385  -0.2061386  -0.1156372  -0.8965340  -0.1436185
   0.7611060  -1.2374979  -0.1478323  -0.1304851   0.0734951   0.0556536
   0.2483557  -0.9602780   0.8323426   0.1273226   0.2813078   0.2255895
   0.0585239   0.0524696  -0.0292664   0.7775438   1.1659112  -0.7844257
  -0.9134876   0.2706683  -0.9799158   0.1950861  -0.0484121  -0.2640525
  -1.3857313  -1.1148841   0.2996753   1.1770531   0.3799854  -0.2030040
   0.1195430   0.1309164  -0.1097353   0.2155081  -0.7567080  -1.2527945
   1.1716329   0.0311139  -1.0667975  -0.2541100   0.0400021  -0.2156992
   0.2981445   0.0764828   1.0787054   0.0827960  -0.0871156  -0.1677130
  -0.0083104   0.1380145  -0.1041509   1.0463827   0.1352819  -0.8258545
   0.3785476  -0.0188399  -0.6528307   0.1806941   0.0170470   0.2441153
   0.0919730  -0.4158066  -0.3222584  -1.3499001   0.6228651  -0.0959115
   0.1482710  -0.1386733   0.0159731  -0.5958129  -0.1881374  -0.0920878
   0.3299231   0.1582181  -0.8904557  -0.1289874  -0.1688695   0.0352968
  -1.1123241  -1.1428336   0.9636618   0.4895930   1.4166720   0.9009982
  -0.0500476  -0.1467720  -0.1828040   0.3839551  -1.1814119   1.0130762
   0.2483104   0.8727157  -0.5338635  -0.0279518   0.0099199  -0.0020271
   1.3519675  -0.5176454  -0.5782082   0.1697617   0.7364216  -0.7215507
  -0.2225614   0.0879963  -0.2603944   0.5607784  -0.1674284  -0.1888804
   0.6022618  -0.6311779   0.2100955   0.2409510  -0.0458803  -0.0550676
   1.2792755  -1.1055075   0.9549294  -0.0846679  -0.7004268   0.6785085
  -0.1391286  -0.3144419  -0.1366555   1.3631715  -0.4814816   0.1715915
  -0.6351099  -0.0327843   0.2210845   0.0291118   0.1563961   0.1015225
   0.4951292  -0.4896566  -0.8516971  -0.0321015   0.0499108   0.4778499
   0.0042234   0.1149425   0.0645404   0.5167090  -0.6872525  -0.7594369
   0.5455444  -0.1061770  -0.3896933  -0.2339917  -0.4266927  -0.1001538
   0.0115575   0.9966281   0.0028263  -0.3393706   0.6553491   0.1013218
  -0.0125240  -0.2845836  -0.0519408   1.3376206   0.2598309  -0.2547092
   0.8135248  -0.3724689   0.1154111  -0.1305788   0.2432710   0.1185143
  -0.2900213   1.6488041  -1.1436547  -0.0812178   0.8427768  -0.9343485
  -0.1395309   0.2396118   0.0225583   0.0841610  -0.6086068   0.1056536
   0.5476460  -1.8782715   0.5720788   0.0542400  -0.1192076  -0.1168702
   0.4508426   0.5069104  -0.1364883  -0.0725875   0.7371350   0.4232905
   0.0934042   0.1581295  -0.2641981   1.1997564  -0.2536606   0.2086971
  -0.3851956  -0.4635285   0.0381329  -0.0034916   0.1728874  -0.2838857
  -0.9694431   1.2136285  -0.6900403   0.3643369   0.8832116  -0.4549977
  -0.0196624   0.0008025   0.1388498  -0.4621744  -0.5780919   0.1583764
   0.2860727   0.8769444  -0.3329188   0.2368547  -0.1299222   0.1683540
  -0.0255852   0.1123024   0.2502709   0.0807504   0.8420851   1.0879384
   0.0106137   0.0963237  -0.1642951  -0.4308840  -1.6618092   0.2881215
  -0.5307167   0.3614273   0.0165305   0.2049504  -0.1298470  -0.0886236
  -1.0918468  -0.6757235   0.2719499  -0.2411847   1.0434501   0.0097526
   0.0622810   0.3264894   0.1785066   0.1242777  -0.6585305   0.6385252
   0.4059579  -0.8410457  -0.4007954   0.0590655   0.0359400  -0.1675741
   1.0017917  -1.3634812   0.2990003  -0.8576486   1.1217418   0.1913833
   0.3871219   0.1208324  -0.1244151   1.2592100   0.2271648  -0.6743402
   1.4288774  -0.7344329   0.5688459   0.0096402  -0.2079960  -0.1571549
  -0.8301830  -0.6249819  -0.1239178  -1.4880080  -0.0925099   0.3920238
  -0.1957224  -0.2915207   0.1162177  -0.9087394  -0.1079223  -1.2721249
  -0.4305072  -0.9133587  -0.2146996  -0.1544248  -0.0480488   0.0359501
  -0.2071594  -0.2719153  -0.3236054  -0.6383219  -1.2993675  -0.9771482
   0.3187073   0.0614525  -0.2271611   0.0808959  -0.4846327   0.4869670
   0.0756194  -0.1957312   0.1518178   0.5457875   0.1406943  -0.2347118
  -0.0417470   0.5379300   1.3564216  -0.2667310  -0.3946674   1.7022892
   0.0237237  -0.1182630  -0.2724297   0.4071957  -0.8516149   0.3249284
  -1.0292588   1.9308885  -1.0933564  -0.0483676   0.2007160  -0.2375869
   0.4180603   0.2993093  -0.8949020  -0.5772921  -0.3972482  -1.7379869
   0.1454573   0.0302122  -0.3141188  -0.3538065   0.4083202  -0.2103327
   0.9135453   0.3099129   0.9202237  -0.1417181   0.2374597   0.3500618
  -1.4477652  -0.4774389  -0.6227206   1.1039273   0.4420289  -0.8037001
   0.2930737   0.0580461  -0.1629940   0.0592376   0.8342325  -0.0981099
  -1.2217579   0.0233308  -0.3090272   0.0776181  -0.2206442   0.2539029
  -0.0411981   0.2550508   0.5680637   1.5038372  -1.4104388   2.0334611
  -0.0190924   0.2790974   0.2343279  -0.6427336  -0.5348169  -0.8397173
   0.1492942  -1.1753834  -0.3589666   0.1489216  -0.1782711  -0.1255028
  -1.8711665  -0.8803098   0.6269649  -0.7136959  -1.5473989   0.9960330
  -0.0019763   0.0396760   0.0767140   0.0337412   0.5264067  -1.0711855
  -0.5012289  -1.0697569   0.4309921   0.1854228   0.1141611   0.2320918
   1.4555856  -0.4587705  -1.2326752  -0.5345252   0.4083740  -0.1512541
  -0.1554745   0.3342282   0.0887170  -0.9837732   0.7788973   1.1703206
   0.5669566   1.6682972  -0.2018715  -0.5325544  -0.1242989  -0.1986524
  -0.3044754  -0.2045395  -0.7709854   0.0034178   1.5745893   0.1034986
  -0.1698156   0.1374468   0.2365622   1.3589461   0.8053902   1.3412026
  -0.4922034  -0.8948360   1.3117065   0.0300514  -0.4896272   0.0611585
   0.0182426  -0.6101702   0.2223802   0.8534396   0.2775419   1.6154603
  -0.0728914   0.2934294  -0.0490760  -1.1202247  -0.1497874   0.6338163
  -0.1711626  -0.4200413  -0.1998027  -0.0490994   0.0274109  -0.1521848
  -0.6319501   0.0367755   0.9209810  -0.6194059   0.7396344   0.5063218
   0.1692994   0.0279901   0.1871518  -0.5597293  -0.6457746  -0.4442462
  -0.9884758   0.5619117   0.6490055   0.1744707   0.0743136  -0.1245487
  -0.6005014  -0.8427234   0.4278814  -1.4401957   0.4779999   0.5938722
   0.0266245   0.1187396   0.1714467   0.2742684  -0.2702763  -0.0803983
   0.4315352   1.0373278   0.2430867   0.4044008  -0.1261366  -0.0402210
  -1.2633047  -0.8050458   0.2991764   1.1812845  -0.1923045   0.3684663
  -0.2003854  -0.2770171  -0.2799176   0.4330005   0.2454593  -0.9186308
  -0.0925515  -0.0372816  -0.1436747  -0.0854386   0.1945108   0.0047418
  -0.4182515   0.2239063  -1.1470612   0.1065877  -0.6937451  -1.4455440
  -0.0775558  -0.0200143   0.0718776   1.0360336  -0.4007368   0.2085931
  -1.2390205  -0.6685463   0.0593808  -0.4193921  -0.0083412  -0.4120050
  -0.2031615   0.5091575   0.1749145   0.8543837  -1.1193269   0.6971496
  -0.0697004   0.2462809   0.0442778   0.0491484  -0.2371592  -1.3147998
   0.4575257  -0.1326402   0.7813240  -0.1558180  -0.1506370   0.0894251
   0.8985470   0.0931388  -0.4249249  -0.8178517  -0.2049260  -0.1951036
  -0.1601086  -0.2639301   0.0480154   0.3842387  -0.4914523   0.9507874
  -0.4050777  -0.7351538   0.5001546   0.2151766  -0.1425893   0.1831676
   0.7185978   0.1196860   0.6473874  -0.3354088  -0.1074744  -1.2903644
  -0.3651932  -0.1915596   0.2463813   0.2606638   0.0406650  -1.0325470
   0.2215058  -0.3378541  -0.6354179   0.0200089  -0.1906255   0.0282833
  -0.5540938   1.5013922  -0.0478659  -0.9603016  -0.1468890  -0.1608494
   0.0166106  -0.3139864  -0.0288431  -0.0537171  -0.7984604   1.0199203
   0.6537092  -0.0265353  -2.0222628   0.0020208   0.0530995   0.3213710
   0.2945426   1.3135653   0.5544223   1.0822433   0.0322745  -0.8157730
   0.1193108  -0.1921474  -0.1796133   1.6559210  -0.1414264  -0.6960444
  -0.5803955  -0.6175229   0.1374447   0.0458180  -0.0403095   0.1910246
   0.0657929  -0.2858716   0.2327495  -1.7327501  -1.5047975  -0.8852134
   0.0543228   0.1737645   0.2434674   0.5772372   0.1351069  -0.0472003
   0.7236681   0.2234413  -1.7116011   0.0763664  -0.2779496   0.2207053
  -0.5704806  -0.5465699  -0.9238419  -0.0532308   0.4730541   0.6836053
  -0.1160887   0.0182297  -0.2210544   2.0057900  -1.7823993  -0.8374671
   0.4826702   0.3300780  -0.0383030  -0.1272427   0.0551713   0.3010450
  -0.5500981   0.4615519  -0.3426089   0.0050018  -0.4285499  -0.4489875
   0.0845252   0.1386516   0.1434045  -0.2695709   1.4495242  -0.1180732
  -1.1880819  -0.8164213  -0.2529761  -0.0216262   0.0415383   0.1527796
   0.8709537   0.6463481   0.1155028  -0.0210617   0.2525403  -0.5427653
  -0.3502108   0.1195248  -0.1378234  -0.1038131   0.0055419  -0.7539788
  -1.9133134  -0.0723254   0.0380385  -0.0990194   0.0326169   0.3918160
   0.4250300  -0.2707534  -0.3143546   1.7283801  -0.5396293  -1.0483122
   0.0155418   0.0287326  -0.3355684   0.1156251  -0.3274394  -0.3915196
  -0.5520256  -0.5106313   1.8655945  -0.1392645  -0.1748148   0.0391369
  -0.2738416   0.6682045  -0.4452607  -0.2822375  -0.6822414  -0.0738652
   0.1651859  -0.0600412   0.1620608   1.5080990   0.5512448   0.6836177
   0.2146185  -0.6107637   0.2848429  -0.0953730  -0.0199463  -0.1972084
   0.1871000   1.1082598   1.1698561  -0.3076138  -0.3699593   0.5657473
   0.3174936  -0.2186234  -0.0409402   0.0853870   1.2844564   1.9942231
  -0.3368926  -0.2009013  -0.6055661  -0.0870064  -0.1004642  -0.6044521
   0.4733707  -0.6396731  -0.8240533   0.2284043   0.6339188  -0.5387797
  -0.0252521  -0.2107303   0.2310678   0.0415542  -0.1145716   0.6883214
  -0.0508495   0.2060901   0.0383366  -0.3179676  -0.4943196   0.2834600
  -0.0981658   0.6472499   0.5301729   0.5364932  -1.0023166  -1.9196724
  -0.0694739   0.2919359   0.0343007  -0.1785954  -0.6365173  -0.3944811
   0.7837754  -1.9245014   0.7246830  -0.1239102   0.0210680  -0.0726217
  -0.5771862   1.5997863   1.0746207  -0.1059364  -0.8606195  -1.2020817
   0.2094446   0.2328856  -0.2006383  -0.7177507  -0.4758272  -0.6012286
  -0.3983225   0.9165153   0.9298227   0.1886287   0.3846778   0.2164869
   0.4249313   0.5989928  -0.5312011  -0.7245750   0.4444736  -2.3759561
  -0.4037261   0.0138205  -0.2430236   0.4228284  -0.1599601  -0.5915338
   0.5767362   0.5233106   0.3594705  -0.3091338  -0.1441224   0.1170553
   0.3033669   0.0620696   1.3688741   1.1686008   0.6322770   0.9347819
  -0.0205935   0.0158916  -0.0247102  -0.8914595  -0.0744443  -0.1706210
  -0.0433317   0.0611255  -0.0999894  -0.0379476  -0.0710103   0.0058606
  -1.5512184   0.4881202   0.1939186  -0.2489426  -0.5255053  -1.4324651
  -0.0127286   0.4879138  -0.0626277  -0.1310738  -0.2272464   0.2528937
   0.8547171  -1.5795038  -1.1743147  -0.2312917  -0.0874474  -0.0164068
   0.2370142  -0.5458245  -0.0974802  -0.0114990   0.3637380   1.8818085
  -0.0983194  -0.2406972   0.3013871  -0.2036419   0.3019027  -0.6277598
  -1.6646879  -0.1845180  -0.6950987   0.0177868   0.3970565   0.0008666
  -0.0908942  -0.1739760   0.0661384  -2.2718656  -1.7555270   0.5220661
   0.0566340   0.0253933  -0.2183080   0.1869861  -0.0379921  -1.2328790
   0.8402631  -1.3666296  -0.9106129   0.2324560  -0.2264062   0.0927050
  -0.4845771   0.1145853   0.2204261   0.9494405  -0.3178485  -0.0580756
  -0.1227208  -0.1779881  -0.0688296   0.0326640  -0.3066837   0.8410189
   0.4168654  -0.1034124   0.1353456  -0.3085456   0.2380542   0.0848997
  -0.5156667   0.3830901   0.5100731   0.6042952  -0.7994624   0.9177252
  -0.2101770  -0.1381199   0.3548691  -1.1141471   0.5557798  -0.5363361
  -0.2914035  -0.0362616  -0.2487851   0.3942131   0.1372621  -0.0224228
   0.0008724   0.8101730  -0.3259920   0.1861376  -1.2164905  -0.4541774
   0.0298610   0.2066576   0.3685098   1.0523343   0.8232870   0.9385659
  -0.8858668   0.9272818  -0.1758049  -0.2853316  -0.1861679   0.1615589
   0.0063555  -0.1833799  -0.0050290  -0.5095091   0.4592116   0.5533068
   0.1040307   0.1754154  -0.1264516   0.1705577   0.8906413  -0.5214398
  -0.9959518   1.0118551  -0.9879678   0.0272990   0.0220751   0.0802913
   0.5672966  -1.3219284  -0.4125203   0.5564297  -0.9101381  -1.9607071
  -0.0208725  -0.2425885  -0.1039651  -0.4725066  -0.0699571  -0.4637640
   0.1260979  -0.5730754  -1.3685340  -0.1697367  -0.2957805   0.1970328
  -0.1539949   1.2005780  -0.1047896  -0.7814812   0.3707241  -0.7420098
  -0.2379620  -0.1655544  -0.0754592   0.2562953  -1.0122302  -0.7657066
  -0.1162071  -1.9102927  -0.0717655  -0.2162060  -0.0037084   0.3108444
   0.9553133  -0.9493361  -0.3246492  -1.2876762   0.3566155   1.0669883
   0.1193616   0.2537747  -0.0532260  -0.1261350  -0.0923804   0.5527936
  -0.1116953   1.0535920   0.3166142   0.1147354  -0.2636826   0.1732772
  -0.3597582   0.4908338  -0.4780198  -0.4373575  -2.0330677  -0.0111580
   0.1292514  -0.1004614  -0.3579239  -0.9794117  -0.0307930   0.0379622
   0.9463895  -0.0299469   0.0904110  -0.3291452  -0.1319017   0.1332331
   0.0567466  -0.6442051  -0.1556046   0.3108667  -0.3599855   0.7584645
   0.0358506   0.0566580  -0.2146339  -1.3913527  -1.4089531  -0.5013109
   0.9886463   0.2989800   0.8533405   0.0154353  -0.0943869   0.0571013
  -0.1345558   0.2102583   0.2530212   0.4608319   0.0021317  -1.1476780
   0.0664987  -0.3281666   0.0841042   0.1335157  -0.7835765  -0.6718396
  -0.5761479  -0.1318939  -0.0535118  -0.0105726   0.3067120  -0.0483138
   0.3902780  -1.0423495  -0.7383996  -0.7881621  -0.1432806   0.8258737
  -0.0438351   0.0283489   0.0488817  -0.3285837  -0.6748713  -1.1497957
  -0.6919094  -0.6962957   0.0505789   0.0054782   0.2364978  -0.1178937
   0.1336286  -0.0850808  -0.7390173   0.2220122   0.2343578  -0.2879743
  -0.1448392   0.0202763  -0.1163867  -0.0714408  -1.9559999  -0.5568365
  -0.1464685  -0.7818841   1.5299056  -0.1108231  -0.1891593   0.0992669
   0.9583990   2.1999323  -0.6389856   1.2742164   0.5108272   0.6846956
   0.3196877   0.3648780  -0.2865929  -0.8733219  -0.3171957   1.1001022
   0.6640318  -1.1458235  -0.6501398  -0.0181231   0.2099815  -0.0458123
   0.1236919  -0.9807981   0.6379027   0.6723625  -0.0441999  -1.1208338
   0.0777924   0.0119732  -0.2886142   1.2429258  -1.0500585   0.9260839
  -0.3520892  -0.2148219  -0.7739788  -0.1725228  -0.0041249  -0.1980996
   0.5636098   0.4535492  -0.3068835   0.4691822  -0.4788128   0.0923724
   0.1094243  -0.1178824   0.0731143   0.5722213  -0.1442861  -0.9128044
  -0.4150922  -1.1113949   0.3190933   0.1078511  -0.4611637  -0.0407876
   1.1763566   0.7521506   0.5208662  -0.3585570  -0.6978217  -0.5740029
   0.2928643  -0.1036812   0.2114239   0.9012091  -0.2814206   0.6328276
   0.8912402   0.7280905   0.1020821   0.2380971   0.1759405   0.0229314
   1.0325664  -0.5250743  -0.0596822   1.8902899  -1.0332429   0.3884649
   0.1640086  -0.0742370  -0.0054602  -0.4964052  -0.9323316   0.1191106
  -0.4394097   0.1503597  -0.7381123   0.6317080  -0.3454747   0.1660245
  -0.5428495  -1.4315356  -0.3451053  -0.9621691  -0.8302581  -1.1714197
  -0.1563236  -0.0301480  -0.1148495   1.4524720   0.7107512  -0.1435192
  -0.6935639  -0.3573512  -0.5414181   0.0815940   0.1446911  -0.0475153
  -0.0355762  -1.0261357   0.5741890   0.7605480   0.2305282   0.2509260
  -0.0370776  -0.0863161  -0.2853176  -0.6480911   1.4139665  -1.4346234
   2.1744246  -1.2170233  -1.4682685   0.0039965  -0.0439852   0.0877690
   0.2099846  -0.2234895   0.3179735   0.4152061  -0.7317050   0.2034834
  -0.2170477   0.0024177   0.0111577   0.3483962  -0.9511631  -0.4087253
  -0.1957306   0.8416127  -0.7859007   0.0514579  -0.3610035   0.0671756
   0.4200903  -0.5925847   0.1440092   0.6376709   0.7427827  -0.1363648
   0.0972549   0.0570627   0.2188597  -0.4972296  -0.2530205   1.2683082
  -0.8255522   1.1165117   0.5426981  -0.6589326  -0.1546595  -0.2162883
   0.0971467  -0.6991161   0.9628301  -0.0876454   0.5227985  -0.9061893
  -0.4205996  -0.1881983  -0.1741066   0.2506602   0.3090978   0.5648739
  -0.0435872   1.0774267  -1.4047848   0.1870860  -0.0517311   0.1259064
  -0.9230341  -0.0678585   0.4540566   0.5083690  -0.4232768  -1.0396905
  -0.1030803  -0.0175337   0.3797171   0.8676099   1.6907605   0.8841991
   1.0838499  -0.5981923   0.0501598   0.0530734   0.2871086  -0.0172799
   1.3064772   0.6298587   0.1579821  -0.5043615   0.5520203  -0.0863990
  -0.0624687  -0.4956698  -0.3069688   0.5919839  -0.0536939   1.1967471
   0.9583730   1.1440313  -0.2812024   0.2017199   0.0537881  -0.0456751
   1.1677374   0.3267033   0.3769743  -0.3934863  -0.2351418  -0.8537814
  -0.0105180   0.3476360   0.2341193   0.4287386   0.8162105   0.9674450
   1.6789973  -1.1357017   0.3286942  -0.0192801   0.1200866  -0.1677854
   1.1909318  -0.0747688  -0.2951823   0.2643552  -1.1151013  -2.0907290
  -0.0828508   0.0202310   0.1444904   1.2612178   0.3171768   1.7615854
   1.9764390   0.2636219   1.4261323  -0.3307514   0.3713992   0.1299987
  -0.4676106   0.5806162  -0.4595574   0.1154788   0.9196036   0.6479073
  -0.2221543   0.0262350   0.1833951   0.0735894   0.0948590   0.0305294
   0.1890790   1.2823886  -0.7810337  -0.2318749   0.0893360  -0.1333934
   0.8234938  -0.9749206   0.4667363  -1.1843017   0.3556381  -0.9148479
  -0.0670072   0.2250910   0.3210585   0.2553900   0.0472428  -0.0542553
  -0.9850109  -0.4789592   0.3122893  -0.3213530  -0.1505868   0.2372462
   0.6766780  -0.4197080   0.1317965   0.0012970  -0.3991728  -0.0164715
   0.2647437   0.0316476   0.0532239   0.7016008  -0.0207368   0.2475901
  -1.2015576  -0.3461782  -0.1624432   0.0638695  -0.0220044  -0.2780937
   1.2924924  -0.4295545  -0.3267319   0.3042042   0.6987643   0.1709311
   0.1625579   0.3077857   0.0260557   0.2090269  -1.4471941  -0.6587160
   1.3855298  -0.2655870   0.0413206   0.0342805  -0.0366591  -0.0767300
   0.5356051  -0.7856986  -0.0526484  -0.8281807  -0.3507891  -0.5608267
   0.1792444   0.2206457   0.1121154  -0.1926627   0.1602032  -0.2934374
  -1.1497369   0.3453597   0.8911062   0.1609912  -0.2350280   0.0696479
   0.4548712   0.3807402   1.7695013  -1.6584369  -1.3580807   1.9218199
   0.2637202   0.0459179  -0.0983959  -0.0582897  -0.9845718   0.9388196
   0.0883785   1.2798727  -0.1836849   0.1067371   0.0890812   0.1572769
  -0.9980112  -0.3996014  -0.3815141   1.6641854  -0.6683657  -1.5060207
  -0.0028733  -0.0245502  -0.2509826   0.8316013  -0.4610946  -1.2084000
  -0.6923927   0.1524012  -0.6976040   0.0576336  -0.1650229  -0.0233350
  -0.0699050   1.3013875  -1.2850357   0.3265574   1.3311481  -0.6094006
   0.1370099  -0.1593170  -0.0578458  -0.1580770   1.1515641   0.9472857
  -0.8814869   1.1100252  -0.5510442   0.1294716  -0.2006635  -0.1059620
   0.3870377   1.3317133  -0.1913527  -0.4183897  -0.0509263  -0.7948193
  -0.0025298   0.0795916   0.2455991  -0.5485725  -0.3500004  -0.1310712
  -0.0995893  -0.6620857   0.5665104  -0.0582191   0.5259678  -0.0922910
   0.3116045  -0.0691102  -0.2479696   0.2420437  -0.7986155  -1.0048287
  -0.0656026   0.0400188  -0.0011548   0.4355824   1.2771245   1.1922208
   1.2252445   0.6338760  -0.8022537  -0.0683818  -0.1509455   0.4064650
   0.9796817  -0.7943164  -0.1487291  -1.0477244  -1.3784512   0.5057677
  -0.1089736   0.0749371  -0.0597644   0.9238427   0.5127662  -0.0516398
   0.3718379  -1.0265291  -0.8725920   0.1347465  -0.1688528  -0.3507121
  -0.9654403  -0.1717119  -1.0581388   0.5264345  -0.2545138  -0.0135471
   0.1545430   0.1125135   0.2547557  -0.1559586  -0.7088100   0.0888937
  -1.1203669   1.4408723  -0.1852513  -0.2914928  -0.1989783  -0.1857892
  -1.9079299  -0.3925902   0.5719677   0.9713242   0.5608070  -0.9735673
   0.2611787  -0.0822489  -0.1156780   0.6788681   0.6445617  -0.0526597
   0.5803343   0.0089413   0.4574352   0.0843312  -0.0099390   0.4804369
  -0.7704861   0.6831474  -0.0767426  -0.4416972   0.2342482  -1.2130471
   0.0693380  -0.3228458   0.0511593   0.1504163   0.5452596   0.8197488
  -0.7510732   2.3309619  -0.0752992  -0.0341297  -0.0119364   0.0914727
   0.9776642   0.9166311   0.4007802  -0.1535986  -0.5872340  -1.7958945
  -0.1294767   0.0882304   0.4400224  -0.8443452  -0.9836528  -0.2246550
  -0.2705420   0.6127777  -0.1851900  -0.3802927   0.0056972  -0.1203442
   0.4994669  -0.4276573  -0.8834072   0.7143187  -0.5729476   0.1365062
   0.2692623   0.0475261   0.1810699  -0.0712948   0.3152653   0.3940564
   0.7508959  -1.3356180  -1.7472974  -0.0378695  -0.1682050  -0.0686304
  -1.6944546   1.0217881   0.8613239   0.0418130   1.5631374  -0.8390056
   0.3417868   0.5385865   0.2189621  -0.3994972  -0.8222868   1.5875484
  -0.5929620  -0.4509708  -0.1468854  -0.0479140  -0.0770770  -0.1088383
   0.2838268  -1.2091993  -1.0297455  -0.3571074   1.2803152   0.2527388
   0.0040538  -0.1696690  -0.0495697  -0.3557039   0.1297519  -0.3761071
   0.1066570   1.1499857   0.9478788   0.1545671   0.0336058   0.1349017
   1.4362328   0.7486256   0.8754828   1.6337917  -0.6583662   0.5435916
  -0.0122168   0.1515892   0.1417052   0.0347330   0.2846767  -0.0990670
  -0.3997709  -0.2153697   0.8799569  -0.1258356  -0.0592077   0.2041343
  -1.0063374   0.8010296   0.4098703   0.2588949  -0.2138679  -0.3511232
   0.1623020  -0.0877132   0.0638426   1.1267792   0.2501019   1.3378075
  -0.5138901  -0.1244531   0.4818098   0.4007737  -0.2007827   0.2450238
   0.7295567  -0.7333798  -1.2586998  -0.4230226   0.4112829  -0.5637038
   0.0723976  -0.4838972  -0.0620083  -0.3620245  -0.2086493   0.5113823
   0.9464360  -0.6754444   1.3407996  -0.1153062  -0.2132470  -0.0248341
   0.1260217   0.0396351   0.5514433   0.0535653   0.1168341   0.4642723
  -0.1677305  -0.0742705   0.1489146  -0.9741897  -0.7103031   0.2359369
  -0.0744345   1.6185217  -0.9141761  -0.0932778   0.0661286   0.0810036
   1.3079801  -1.1470987  -0.2610022   1.1923313   1.0678252   0.4939328
  -0.0525450  -0.0513490   0.0774349  -1.0890477   0.4408941  -0.5242509
  -0.1413820   0.2413498  -0.1921985  -0.0350810  -0.2481980   0.2611923
   0.5830582   1.6300302  -0.4149384   0.3327993  -0.8777998  -0.7141455
   0.1001874  -0.0806377  -0.1352361  -0.9105044   1.1974117   0.2101026
  -1.0465106  -0.0938508  -0.8820664  -0.2022533   0.0106232  -0.0632528
   0.6006919   0.3090719  -0.2643831  -0.2162055   1.6967477   0.4009861
  -0.3261780  -0.0528188   0.4149835   1.0415808  -1.3954546   0.0786487
  -0.5023488  -0.1271518  -0.9140232  -0.0950468   0.1379880  -0.2243020
   0.0430362   0.1370929  -0.5388324   1.0592771  -0.6364588  -0.4312358
   0.5820413   0.1588940  -0.0693465  -0.1746745   0.2316152   0.2834301
  -0.4633673  -0.7636015   0.7969099   0.0521649   0.2015749  -0.1133787
  -0.5203737   1.9222430   0.3268087  -0.5007133  -0.7704566   0.3371099
   0.4069839   0.0524538   0.0895082  -0.8335242   0.6540597   1.9921407
   0.7279595  -0.4849737   0.2941869   0.1875586  -0.0871874  -0.0005714
  -0.3127480  -1.0156317  -1.7880188   0.3492728  -0.1637391  -1.0229805
   0.3911446   0.1805717  -0.3626025  -0.4267200   0.2026719  -0.0014233
   0.2216436  -1.0149914   0.6153783   0.2007441   0.2220070  -0.1964002
  -0.2921485  -0.8619281  -0.1812546  -0.3398567   0.6176353  -0.2055944
   0.1293649   0.0110591   0.1627735  -0.7975729  -1.8920184  -0.0149806
  -0.3808251  -0.1253092  -0.1459411   0.1460019   0.3159697  -0.0914049
  -0.1687208  -0.7457785   1.7247574   0.6364825   0.8593715   1.3692900
  -0.0369010  -0.0747344  -0.2149146   1.0004083  -0.5102566   0.3601562
   0.4193119  -0.5284273  -0.2831422   0.0229926  -0.0369040  -0.2643334
   0.3598351   0.4695971  -0.4481087   0.5539125   0.1667479  -0.4738433
   0.2435408   0.0104578   0.2584297   0.6433810   1.9817892   0.4746079
   0.3406080  -0.5586243  -0.0927359   0.2979462   0.1542999  -0.2007658
  -0.4237103  -0.3959239   0.8558128  -0.2429198   0.1671288  -0.6726827
  -0.5879695   0.0590613  -0.1467554   0.3059705   0.3904685  -1.3482512
  -1.6273659   0.5915505   0.0589269  -0.3040593   0.0207800   0.1076148
  -2.2881706   0.7738094   0.3622101  -0.3928378  -0.1117097  -0.9760794
  -0.2744239  -0.0713767  -0.2109005   0.3447365  -0.0939981  -0.0863188
   0.5219382  -0.3240819  -1.1555815  -0.0068836  -0.0035979  -0.1013105
  -0.4780540   0.3717226   0.1891943   1.1650506   0.0952414   0.3412913
   0.2750875  -0.1150481   0.3958397  -0.4768737   0.6849381   1.7591305
   0.9506217   0.0937273  -1.3920294  -0.3319360  -0.3117111  -0.1815002
   0.3978665  -0.4398908  -0.3879049  -0.3534248   0.1399133  -0.5064031
  -0.1082277   0.1684590   0.1344365  -0.9642074  -0.4892491  -0.5512742
   1.0004032   0.1091421   0.2983480  -0.6365713   0.3169326   0.0127723
  -0.7781221   0.3314880  -0.1797378  -1.2328373   0.1403161  -0.8874829
   0.2894724   0.1607703   0.2347858  -1.4531889  -0.3802726   0.9443595
  -0.3395512   1.6599649   1.5404174   0.1313507   0.0262139  -0.1224044
   0.4969732  -1.2882638  -0.8973163   0.1043504  -1.5694176   0.5461386
  -0.0855597   0.1501353   0.3536126   1.0830585  -0.4887166   0.3584641
   1.0981894  -0.0503764  -0.2846172   0.1563499   0.1588431  -0.0791430
   0.3801407   0.7072928   0.1163187  -0.3626924  -0.7498822  -0.3330917
   0.1151239   0.0912438   0.0939690  -0.2281109   0.1141970  -0.0459793
   0.3923746   0.6904667   1.6857455  -0.0630388   0.1601026  -0.3813384
   0.7753051  -1.1236095   0.4015784   0.0843889  -0.7500172  -1.0241404
  -0.0546681  -0.1216467  -0.0490812   1.9931885   0.0697819   1.1128511
  -0.1295822  -0.4856567   0.0100838   0.0594387  -0.1521888   0.1827921
  -0.2580512   0.3243076   0.0460367   0.7144482  -0.1783498  -0.3678658
   0.0870127  -0.0012862   0.1732639  -0.4664862  -0.1260206  -0.0261901
  -0.6784893   0.4405285   0.1172988   0.1406267   0.1904247  -0.0686441
   0.6813995   0.8644374   1.0705277   1.4618602   0.0883906  -0.6401953
  -0.2098537   0.0799631  -0.1277935   0.2197654  -1.6825708  -1.1961740
   0.5572820   0.6251530  -0.1415876   0.3185742   0.1827883   0.2180520
  -0.4648805   1.0219729  -0.7603097  -0.1877009  -2.7120197  -0.1179305
   0.0103898  -0.0451424   0.3413075   0.7456989  -0.2601583  -0.0549886
   0.0637808   0.2440909  -0.2201873   0.0748675   0.2888078  -0.0227101
  -0.5068973   0.4203245  -0.6469973   0.1029582  -1.3333669   0.5293087
   0.3881021   0.1113573  -0.2718319  -0.0925084   0.0782698   0.3649116
   0.1665159   0.9027904   0.7412547  -0.0463033  -0.1372242  -0.2209819
   1.0878060   0.2258442  -1.2289336  -0.8142028   1.1037662   1.1867247
   0.1217656   0.3156818  -0.4417617   0.4951551  -1.2148287   0.3435165
  -0.4385306   0.1178845   0.8064987   0.0428943  -0.4030834  -0.5719086
  -0.9290093   2.0909948  -1.4763235   0.8099036  -0.5387623  -1.2791263
   0.2257338   0.3229221   0.0790415  -0.1484823   0.7184624   0.0473991
  -0.5500953  -0.7719011  -0.1631921  -0.0539986   0.0327206   0.2663075
   1.5169084  -0.6782783  -0.0915645   1.1125098   1.6173575  -0.7469076
  -0.0672083  -0.0174902   0.1347298   0.1625265   0.0421942   0.0539597
   0.4372852   1.0512719  -0.0453594  -0.0262637   0.0572423   0.4975177
  -0.5900646  -0.4925846   0.1610149   0.8571736   0.9906751  -0.6356521
   0.1502209   0.1911406   0.1225938  -0.4126665  -1.8520685  -1.5975491
   0.5978390  -0.1573151  -0.2715125   0.1555005   0.1828231   0.3504151
  -0.4404858  -0.4549590  -0.0417010   0.5116501   0.6413743  -0.9494090
   0.0188811  -0.2796222   0.0693806  -0.8271344   1.3885448   1.4847740
  -0.8788112   0.1769398   0.9752721  -0.0841602   0.0006608   0.1244962
   0.3017685   1.0113041  -0.5570385  -0.0688823   0.0867480   0.4867614
  -0.2320007   0.2780432  -0.0036803  -0.3044722   0.0195332   0.2336432
  -1.4911722  -0.4829693  -0.0900796  -0.0604088  -0.0267887   0.0112422
  -0.7190714   0.1137422   1.0337783  -0.6755425   0.4187158  -0.7722296
   0.4035995  -0.3798620   0.0423897  -0.1366888   0.8689712   0.6074265
   0.6676504   0.5351405  -0.0556182   0.2280509   0.2389168  -0.0198086
  -0.0700343  -0.1549636   0.4176315   0.3431183  -0.0705014   0.4777167
  -0.2132892  -0.0110634  -0.1850703  -0.8315716   0.7197814  -0.3799838
   0.2145370   0.7015598  -0.5069481  -0.4063314  -0.1971490   0.0478811
  -0.3959127   0.1804822   1.3903406  -1.5513765  -0.4337917  -0.3804094
   0.1218266   0.0746283   0.0884215  -1.2530556  -0.0820297   0.6128038
   0.2104024   0.8316955   0.9445803  -0.3607281  -0.3760971   0.1549756
  -0.9388012   0.3656666  -0.6806956  -0.9375707   0.3261853  -1.6480995
   0.3181973  -0.0781562  -0.4500782  -0.1477291   0.6554534   1.3397233
  -0.4854642  -1.3106564  -1.0097883  -0.1103886   0.0905973   0.0794030
   0.1619160  -0.9338896  -1.0054585  -1.1082013  -0.0511628  -0.6642611
   0.0360986   0.2107043  -0.1954173   1.3978859   0.0312457   0.6564896
   0.1434031  -0.2939517  -0.1335386   0.5752730  -0.0535307  -0.1297369
  -0.9469024   1.4185796   0.8674759   0.9110873  -0.4312884   0.3764537
   0.1305930   0.3664877  -0.0276916  -0.9387747  -0.9073725   1.2056583
   0.5593397   0.0153328   1.2363130  -0.0619449  -0.0289086  -0.1087191
  -0.0949447   0.3846552   0.6022986  -0.8906173  -0.3906019   0.0685990
   0.0135872   0.0148681  -0.0916837   0.0096798  -0.4584593   1.2042394
  -0.2231546   0.0696537  -0.2308186   0.0814528  -0.1759468  -0.4529885
   0.5861191   0.4461655  -1.0788267  -1.5559909  -0.7641016   0.4549747
   0.2435884   0.1050529  -0.1441918   1.4756254   1.3921305  -0.3870119
   0.1407915  -0.2418634   1.0940779   0.1169241  -0.1799697  -0.1215263
  -1.7232319  -1.2216182   0.8057498   0.1814361   0.1606781  -0.6357592
  -0.0059683   0.0998083   0.1781788  -0.5656220  -0.2739630  -0.9382229
   0.2440493   0.3916510   0.4346998  -0.0557854   0.1592850   0.0173124
   0.0455074  -1.2497164   1.0811183   1.4069053  -0.4718048  -0.1546619
   0.1692064   0.2690274  -0.0982073   0.7768769  -0.7206032   0.8541448
   0.5200886  -0.1078086   0.8439096   0.3076083  -0.2587672   0.2660607
  -0.6530740  -0.5138829   0.1429891   0.9963417  -0.0087759  -0.1445922
  -0.5399359  -0.0974864   0.1511089  -0.6867349  -0.8241785  -0.1524204
  -1.2587579   2.5415249   0.4215589   0.1254252   0.2528514   0.1477861
  -0.5329743  -0.7765157  -1.4794049  -0.8786026  -0.5573335  -0.7343689
  -0.1449695  -0.1961429  -0.2257871   0.6818346   0.1752610   0.3462293
  -0.7206218  -1.5506012   0.1233508  -0.2876325  -0.1756662   0.1460974
  -0.1101451   0.5214931  -1.5839388   0.4601938   0.6903740   0.2342160
  -0.0145063   0.1127701   0.0102745  -1.0770483   0.8725067  -1.0009388
  -1.0054548   0.5482004  -0.0414143  -0.0087655  -0.1983629   0.0998437
  -0.2934567  -0.1416673  -0.7190860  -0.6589862   0.5174045  -0.2876255
   0.0271039   0.0201939   0.0347696   0.0018568  -1.0799998   0.0030351
  -0.1120129  -0.1631050  -1.5204251   0.2111875  -0.0766720   0.2644488
   0.5318803   0.4616073  -0.0315616  -1.1404005   0.1126420  -0.9299585
  -0.3742329   0.1410919   0.0383693  -0.8847433  -0.7935824   1.7025338
   0.4462139  -0.6644875  -0.2118345  -0.0938705   0.1705064   0.1673827
  -0.3281869  -0.7826561   1.2503295  -0.0831782   0.6146439   0.1912326
   0.3181169   0.2820026  -0.0143460  -0.6942654  -0.6575636   0.8897688
  -0.7675457   0.5885584   0.2331431  -0.0616285   0.1444531  -0.1038827
  -0.0475191  -1.4754354  -0.6136729   0.3728470  -0.0539302  -0.8141073
  -0.0850428  -0.3355220  -0.0525415  -1.5865064  -0.0621428   0.8494039
   0.6331925   0.5370007   0.0536230   0.0687811  -0.2052507   0.2942767
  -0.4562593   0.0653333   0.1075376   0.0134425  -0.1108821   0.3684435
   0.5034910  -0.2544381  -0.3158782   1.3139889  -0.9961715  -1.5961910
   1.4366013   1.0237678  -0.4229662   0.1387534  -0.0170994   0.1411049
   1.6366169   0.3560188   0.5759807  -0.2827261  -0.2848943  -0.0597092
  -0.0086421  -0.1355451   0.0821775  -0.7910362  -0.2711196   0.0370011
   0.3180587   0.8967434  -0.7186393  -0.2096251   0.0902371   0.1251981
   1.7515930   0.3754410   0.4087624  -0.5026382  -0.2414882   0.2042246
   0.1030547   0.0057120  -0.0482522  -0.0256584  -1.0299032  -1.4750897
  -2.1549666   0.8255826  -1.2775503   0.0371464   0.1352302   0.3952998
  -0.9846058   0.7250210  -0.9755370   1.0292772   0.5133083   0.0315792
  -0.3845934  -0.0931961  -0.3495690  -0.6138480   0.8071211   0.4541434
   0.4033230  -0.5824240  -1.8869638  -0.1216088  -0.3722505  -0.3324056
   1.2388645   0.9724604  -0.8866013   0.5173248  -0.6804865   1.6030886
  -0.0329119   0.0928648   0.1323236  -0.1189386   0.5855935  -1.7747386
  -0.7800484   0.0274823   0.2543229  -0.0764026  -0.1503583  -0.2098725
  -0.0014685  -0.5558992   0.4159824  -0.5211847   0.4657871  -0.4771211
   0.3445644  -0.1236458   0.2012229   0.1943621   0.9106195   0.2785170
   0.0809821   0.0925340  -1.0585352   0.1041208   0.2249927  -0.0820363
   0.2278793  -1.3775734  -1.2866417   0.6804838   0.0981246   1.3552495
   0.2811841   0.3396181  -0.1014535   0.2633366  -1.3011812  -1.0043218
   0.2769685   0.4734694  -1.2291975   0.0971798  -0.3812442  -0.0751332
   0.6231177   0.4628008   1.3382765   0.5216092  -0.5622558   0.0445970
   0.3155096   0.0867234  -0.0619364  -0.5708504   0.9657405  -0.8185607
  -0.0321953  -1.1041178   0.4139301  -0.0342924   0.0184376   0.1179911
   0.1961672   0.0505528  -0.4685211   0.2307023   0.7621585  -0.2507807
  -0.1293540  -0.2054902   0.2105178   1.3894296   0.5847102   0.2307072
  -1.9048654   0.6724016   1.9035479  -0.3757633   0.1513218   0.1794546
   0.3252680  -0.8047562   0.4317978  -0.7737116  -0.0727070   1.4393877
   0.1138324  -0.0940195  -0.0243782   0.6280578   1.4287387  -0.6102512
   0.0710424  -0.6601338   1.3490015  -0.3312508  -0.2014161  -0.4027979
  -0.7038327  -0.7948902   0.9273400   0.2960953  -0.4915624   0.8479033
  -0.2454836   0.1097471   0.0360077  -0.1097650  -0.3786916  -0.3857062
  -1.4330990   0.0382152  -1.1486462   0.1098150  -0.0140780  -0.2310031
   0.0779545  -0.0581030   0.5478541  -0.7765195   0.4857672  -0.7317501
  -0.1263902  -0.3336140  -0.0950487  -0.1367008   1.3937560  -0.8654238
   0.5389137  -1.9245857   0.3549306   0.2633690   0.0135277  -0.1077816
   0.2828681   0.4532152  -0.8007103  -0.6854585   0.4088799   0.8187080
   0.2666131  -0.1228250   0.3144164  -0.0293019   1.6902752   0.7874707
   0.1699782  -1.1901746  -0.1130543   0.2128806  -0.0710952  -0.1432142
   1.4754416   1.0901159   0.0382998  -1.0514367   0.8721950  -0.0349473
  -0.3575897   0.2776124   0.1726469   0.4917070  -0.8925396   1.1417562
  -0.1123918   0.6826062   0.1926474   0.0694604  -0.1825548   0.1446978
  -0.5925474   0.5908549   0.1265028   1.4396207  -0.5363132  -0.1132716
  -0.0771246   0.2930062  -0.0745711   0.5450844   0.0287765  -0.7527999
  -0.3109724   0.2340723  -0.4115427  -0.3856592   0.0926526  -0.1633897
  -1.0676862  -0.9091138  -0.0673866   1.4611182  -0.8785790   0.4476486
   0.0457083   0.0373898   0.1592744   0.3866433  -1.3963914  -0.2880127
  -1.1696393   0.6852393  -0.7935313   0.2160911   0.2842371   0.0641651
  -0.8061570   0.7751370  -0.2134243  -0.3732783   1.0783181   0.5932088
   0.1259794  -0.1417710  -0.4041156   1.3313347  -0.5534146  -0.8518370
  -1.0358986  -1.0845574  -0.6921903  -0.1811295  -0.2467079   0.2056314
  -0.6932431  -0.7055996  -1.0438399  -0.3835918  -0.5700308   0.6304429
   0.0547796   0.1111588  -0.1722498  -0.1398402   1.0726025   1.2849222
  -0.6794658   0.4101947   1.2789760   0.1497313  -0.0938656  -0.0820682
   0.5555288   0.1263880   0.0542076  -0.3284202  -0.6139057  -1.1788546
  -0.0446427  -0.0727671   0.2706112   0.0337274   0.0261382   1.0442437
  -1.3520191  -0.8137255  -0.3988064   0.3992396  -0.1594189   0.0822509
  -0.5552123  -0.6663191   0.4850480  -0.0506387  -1.0086937   0.2868975
  -0.2224397   0.2060208   0.0947202   0.8734601   0.6532623   0.7480690
  -1.6687276  -1.2179652   1.4335253   0.2414170   0.1895768   0.1575795
  -0.9177263   0.2042505   1.4720076  -1.7569098   0.8726260   0.6640613
   0.0307964  -0.1442981  -0.2611951   0.4859182  -0.8899242  -0.5091107
   0.7190224   0.6771002  -0.1313348  -0.0269101  -0.1456521   0.0154115
   0.6935189  -0.4974375  -2.2144222   1.5462743   0.5950282   0.3100329
   0.1783836  -0.3386133   0.0420186   0.1555940   0.0795788   0.1629173
   0.0632213   0.2130508  -1.9795998   0.3283167  -0.0672060   0.0904401
   0.0010382   0.0661354   0.8366072  -0.1426832   0.5628316  -1.1342894
   0.1301765   0.2118194  -0.0076663   1.1281874  -0.6287119  -1.8559847
  -0.6983769  -0.1526276   0.3559616   0.2066959  -0.0928087  -0.5100160
   0.9474487  -0.7161245   0.5375762   0.2798824   0.7903522   0.0700079
   0.0286546  -0.1539416  -0.0946234   0.8498139   0.2429586   0.3081557
   0.5918690   0.2051504   0.2836999  -0.0344579   0.0864178  -0.4293466
  -0.8589873  -0.9171650  -1.2512780  -0.5144367   0.8362086   0.9664776
   0.1634425   0.0104467  -0.0876740  -0.3471512  -0.3535394   0.6304885
   0.4041464   0.6097296  -0.2966076   0.1205558  -0.0113773  -0.0167815
  -1.4487538  -0.0707119  -0.0613366  -0.8602765  -0.4380124   0.3031513
  -0.2418945   0.1890949  -0.0850731   0.3082346  -1.0519375   0.7959963
  -0.7219332   0.6787398   1.2558583  -0.0913837  -0.1104624  -0.2081604
  -0.3580281   0.1737602   0.1757611   0.1577564  -0.8274632   0.3907342
   0.2491499  -0.0386626  -0.0912570  -0.2151232   0.5754219  -0.7007704
   1.7722064  -0.2083084   0.9365860  -0.1002682  -0.0606906  -0.2558940
  -0.0280785  -0.0439590   1.2430580  -0.6326593  -0.1088620  -1.3132645
   0.2388973   0.0485737   0.0493123   0.2619671  -0.0010476   2.1426170
  -1.5261370   0.3652323  -0.9807332   0.1887860   0.1615686   0.1545960
   1.2146804   0.7578149   0.4591456  -0.7098303   1.4733077   0.9563099
   0.0184216   0.1104649   0.1767907  -0.7306897   0.1126336   0.3944348
  -1.1861720   0.8370450   1.2717398  -0.1221086  -0.1840515   0.1735190
   0.1923860   1.3410430   0.0262357  -0.1537650  -0.0838488   0.5586796
  -0.0100684   0.1238078  -0.3023341   0.3676662   0.0021867   1.1146755
  -1.1531466  -0.3903511   0.0223836  -0.0142021  -0.1281990   0.0091310
  -1.1502140  -0.1788832   1.1956248   0.1165340  -0.3696547   0.6604299
  -0.0528920  -0.2164693   0.4588278  -1.0381286  -0.0437989  -0.3665188
   1.8012476  -0.6964874   0.1951026  -0.1809359   0.0794324   0.0738304
  -0.6252433   1.2841473   0.1038312   1.4657711   0.7419144   0.2906758
   0.0534069   0.1074927  -0.2504365  -0.4886132  -1.5063320   1.3892585
  -1.4415451   0.4217416  -0.1848644  -0.1627344   0.1149391  -0.4582491
  -1.4109888   1.1500049   1.1189498  -0.0583643   0.2431379  -0.2284159
   0.3512761   0.0102934   0.3182811  -0.0647637   0.3472100   0.0658948
  -0.0482637  -0.4485658   0.5429591   0.1673622  -0.1434752   0.3351174
  -1.2694201   0.2796115  -0.5591483   0.8916897  -0.9178962   0.0870864
  -0.0208253   0.0851924   0.0757497  -0.2657555   0.8840841   0.8265006
   0.1222004  -1.7403287   2.1310217  -0.0447643  -0.0208380   0.0274577
   0.1627269  -0.3727351  -0.8364330  -1.2288755  -0.1623894  -0.3351962
   0.1649048  -0.4805652   0.1592726  -0.5855007  -0.4085469   0.2106781
   0.0926977  -0.7004084   1.0625883  -0.0834264  -0.0230102   0.0478205
   0.1017541  -0.7727843  -0.3640675   0.4912197   0.4453582  -0.8660781
   0.1144084  -0.0689976  -0.0977808  -1.0920022  -0.1172448   0.5365577
   1.2455096   1.1814066   0.0734316  -0.1308327  -0.0444771   0.2964638
   0.0365682   0.7105229   0.3286663   0.1597242   0.1620642   0.6756014
   0.0222263   0.0279210   0.1758665  -0.3298654  -0.1134625  -1.0398132
  -0.4735979   0.6885530   0.5987300   0.1069364  -0.0094842   0.0356927
  -0.3222483   0.7430464   0.5673155  -0.1235508   0.0005382  -1.5158067
   0.0029403   0.0879144   0.0128337   0.6276189   0.1209815   1.3347601
   1.5681957   0.6811229   0.6928786   0.3740544   0.2063638   0.2904260
   0.5406242   1.0723513  -0.6283961   0.8415794  -1.2825129   0.5536051
  -0.3396331  -0.1249769   0.1880981   0.0592612  -2.1106269   0.8169953
   0.6528817   1.1132646   0.2630351   0.1304114  -0.1493654   0.1546710
   0.2764063   0.7397276   1.0994618  -0.5016088   1.1350579  -0.7074724
  -0.1769379  -0.1098213  -0.1081836   0.1648629   0.8783028  -0.7998374
  -0.8934001   0.1940293  -0.6723441   0.1949137  -0.0396599  -0.1793453
   0.0976710   0.0778851  -0.1661891  -0.4777710   0.1733941  -0.0676810
   0.0299887   0.3519970   0.3824928  -0.1135051  -0.0610453   0.5472879
  -0.7363586   0.6440046   0.2437696  -0.0958268   0.2001530  -0.2933763
   0.4940052  -0.1980236   0.4367504  -0.3788133   0.8105603   1.9576796
  -0.3755220  -0.1231170   0.1645537  -0.2016994  -0.7758699   0.0909870
   0.9027916  -0.2849523   0.5712186  -0.4480503  -0.0220981  -0.0969883
  -0.9266343  -0.3874351  -1.5983127   0.2365354  -1.1027964  -0.1433943
  -0.2414173  -0.2100568  -0.2247512  -0.0638444  -0.4090036  -0.1225507
  -1.3614119   0.6685199   0.5301151  -0.0544079  -0.2504526  -0.0737853
  -0.3313071   1.2799041  -0.1265242   0.3288467   1.0284917  -0.4825394
   0.1172750  -0.5528352  -0.3319197  -0.2051934  -0.8695177  -0.0933909
   0.5680976  -0.5021223   0.0991865   0.0238754  -0.3207578  -0.2363895
   0.4549207  -0.9163306  -1.0726981  -0.1054185  -0.7566093   0.3714832
   0.0493509   0.1851125  -0.1158330   0.1865431   0.4541846  -1.0632991
   0.1954208  -0.3181050  -0.2273103   0.0636434   0.3162977   0.1683136
  -1.1977040   0.3731146  -1.6074365  -0.8329049  -0.5388893   0.7286652
   0.2384446  -0.0278049  -0.0302674   1.2491150  -0.6808879  -0.2682237
  -0.0300784   0.5790938  -1.1408910  -0.3779199  -0.1369088   0.0798065
   0.7442084  -0.7998216  -0.0506740  -0.2198324   0.0018427   0.8716906
  -0.2150783  -0.3883229  -0.0206607  -0.3584763   0.8277237   2.1164374
   0.7275354   0.2872200  -1.0538743   0.1713098  -0.2796627  -0.0805211
  -1.2714585  -2.3099887  -0.4477666   0.2053618  -1.3583665   0.6092180
  -0.2418698  -0.1228565   0.0433023   0.6964098  -1.8148396  -0.2646202
  -0.6698031   2.1037233   0.7133505   0.0991496  -0.0669222  -0.1373438
   0.0491277   1.3065375  -0.4836989   0.5679395  -0.4455397   0.4385822
  -0.1266679   0.1713503   0.1936753   0.4362183   1.0630324  -0.3946422
  -2.3386452  -0.7378954   0.8794621   0.0214662   0.1930864   0.0542798
  -1.7021210   1.1344146   0.8944567   0.7082395  -0.3704008  -0.0399497
  -0.0246358   0.3141679  -0.3927385  -0.5572640   0.2971126  -1.2544807
   0.2737724   0.4772606   0.4858325  -0.0752748   0.2546820  -0.2058555
   0.9547160  -0.7388797   0.7669317   0.6511038   1.7072396  -0.0405885
  -0.3572271  -0.0512652  -0.4830787   0.7806639  -0.5167484   0.1487615
  -1.2251363   1.6273444  -0.6977306   0.0113520   0.0196332  -0.2466995
  -0.6155497  -0.8092518   0.4239970  -0.7471101  -0.1553354   0.7953916
   0.3758305   0.2067802   0.1090845   0.1858872   0.9942731  -1.6548976
   0.8821475  -1.2102271   0.3639697   0.0435765   0.2023660   0.0422383
  -0.6828798   1.0403193   1.2177050   0.2713171   0.6544566  -0.3919385
   0.0685424  -0.3099361   0.0022964   0.0952254  -0.5209944   0.8797755
   0.0211851   0.2099168  -1.1594388   0.3323755   0.3916945   0.2858528
   1.2298832  -1.2620922  -0.2731959   0.6100181   0.3638740   0.2561048
   0.2405605   0.2249584  -0.0565431   0.1050972   0.0121864   0.1929712
   0.7658976   0.8528457  -1.3222467   0.1642869  -0.1150365   0.0515683
  -0.1005509  -0.7119079  -0.2464598  -0.2727425   0.1387753  -0.3522112
   0.1810674   0.1719399   0.2332709   1.2138047   0.2811546  -0.7267687
  -0.3675922  -0.4829026  -0.2086984  -0.0941969  -0.0735734   0.1961887
  -0.3032228  -1.3482507  -0.3510012  -0.9082596  -1.0141160   0.1884371
   0.1686451   0.1302152  -0.0516900  -0.3413833  -0.2149686  -0.2551656
   0.4683073   0.6701307   0.1977122  -0.0417593   0.2541170  -0.0149574
  -0.2841503  -0.4180172   1.0489395  -0.8720300  -0.3220905   0.3833469
  -0.2958839  -0.1692056   0.2747779  -0.7578695   1.1154522  -0.2242223
  -0.0483075  -0.1662552   0.8391216  -0.0799069   0.2927308   0.2199343
  -0.6667726  -0.3029779  -1.1244903   0.0196774  -0.7379512   1.2476498
   0.2845988  -0.3609422  -0.0525792   0.5877749  -1.7386273  -0.0491800
  -0.8389203   2.2964113   0.7085961  -0.0058503   0.3910290   0.0029906
  -0.7461507  -0.5889516  -0.3535901   0.7616944  -0.8648697  -0.1786388
   0.0373976  -0.0681069  -0.0535708  -0.1949425   0.1806267  -0.3632590
   1.9529299   0.2012459  -1.0491276   0.2474347   0.0272756  -0.0818868
  -0.6711027  -0.5047050  -0.1490403  -0.6295224  -0.8951225  -0.0065096
  -0.1394908  -0.2924964  -0.0690857   1.0865288  -0.1389627  -0.4717179
  -0.4354417   0.2955309  -0.3387981   0.0372203   0.4143331   0.1532884
   0.4957421   1.2685257  -0.5674407  -0.1867396  -0.3620654  -1.2606412
  -0.2003974   0.1351342  -0.0625935  -1.8164753  -0.5338325   1.0769377
  -0.1827749  -0.7946187  -1.1941217   0.0578423  -0.1045754   0.1601732
   1.3830323   1.2743845   2.2477942  -1.5308975   0.1347230   0.6977605
  -0.0604613  -0.0119828  -0.0641026   0.6421195   0.2717534   0.1127790
   0.9751383   1.5085144   1.0300603   0.2583666  -0.0369129   0.3117915
   0.1786110   0.8656887  -0.4739092   0.5238141   1.1922647   0.6870201
   0.0552940   0.0336825  -0.1517915   0.7070444   1.1643497  -0.1575184
   0.8092085   0.4250213  -0.1328600   0.2806526  -0.0793969   0.0577390
   0.0309409   0.2246090  -0.7556505  -0.8006173  -0.9627987   0.5393079
   0.3553023   0.3030832   0.1818530   0.9189758  -0.8580452   1.1440010
   0.2489904   0.2188327  -0.6380791   0.0079795   0.1532774   0.2193059
   0.3596919  -1.0854974  -0.3836818  -0.2350654   0.0713996   0.6424371
   0.4197172   0.0242976   0.1051293  -0.4983842   0.1075420  -0.9963753
   0.9409559   0.0852966   0.4632080   0.1559981  -0.1647607  -0.0044876
   1.7637817  -0.6597115   0.4820536  -1.0209849   0.4075043   0.4151651
  -0.0975813   0.1025146  -0.2156216   0.4191492   2.0644221   0.5332567
  -0.0858304  -0.0425259   0.9625929  -0.2427793  -0.0870322   0.3877748
   0.9619493   0.0676279   0.2409876   0.3650900  -0.4338500   0.4478809
   0.2997271  -0.1724844  -0.1760331  -0.1594785   0.2960718   0.9276497
   1.7915951   0.3997803   0.1420133  -0.3050210  -0.1163665  -0.0833512
  -0.9198158  -0.1589035  -0.4368402   1.2400839   0.1634625   0.6960893
  -0.0552647  -0.1809402  -0.1876614   1.0295508   0.1115624  -0.4522329
  -0.4144668  -1.0206865  -0.1350021   0.1908479  -0.1670566   0.2395675
  -0.5747086  -0.1709868   0.6784720  -1.0298848  -0.7052107  -0.6179503
  -0.2930098  -0.0396907   0.1447079  -0.0346038   1.5746522   0.0151147
  -0.8765630   0.3487202   0.0881454   0.0802002  -0.1456409  -0.1509304
   0.4331153  -1.0603406  -0.3987130   0.9542096  -0.4175730  -0.2695571
  -0.0888621   0.1222563  -0.0968305  -0.5080245  -0.5990337   0.9466599
   0.0608150   1.8867457   0.2167527   0.1744806   0.3759291   0.2142682
  -0.6267934   1.5849587  -0.3842006  -0.4312228  -0.4660695   0.7540817
  -0.2856968   0.0871529  -0.0426138   0.6667316   0.3445325   0.5953704
  -0.0001725   0.5681704   0.4287159  -0.2450048   0.1948152   0.0928287
  -1.3490175   2.0182080   0.3664171  -1.2396435   0.1892304  -0.4438252
   0.1625484  -0.2272287  -0.2978366  -0.5005437   0.7848405  -0.3489339
  -0.5152858  -0.4793574  -0.5674378  -0.0174177  -0.3164524  -0.2256406
   1.1844196  -1.6181540  -0.3715234   0.3562979   1.3844738  -0.6902202
  -0.2648958   0.2787681  -0.0438241   0.3403709  -0.9854372   0.1337812
  -0.3505536   0.1602906  -0.0888717  -0.3037611   0.2372546  -0.2954932
  -0.5656639   0.1246692  -0.4662399   0.6249923  -0.2837243   0.3930048
  -0.0477554   0.2058083   0.0320832   1.5352343   0.4501680  -0.5582915
   1.8392502  -0.8441582   0.7590007   0.2633922   0.0833077   0.3252688
  -0.7657813  -1.8457587  -1.1289111   1.1038128   0.1535558  -0.6786237
   0.0698178   0.1315623  -0.0633291   1.1265235   0.8518369  -0.9601915
   0.0764097   1.4777558   0.0508370  -0.2214612  -0.0185946   0.0145931
   0.3987362   0.0781314  -0.8392956  -0.6129905   1.4199136   0.4732292
  -0.1131459  -0.0799621  -0.1759795  -0.2245296  -0.7040746  -0.3506744
   0.8095586   1.3000493  -0.1397683  -0.1068354  -0.2825557  -0.1957400
  -0.4467830  -1.4738271  -0.1437701   0.2389751   0.4780174  -0.2698668
  -0.0090153   0.1401465   0.0130192   0.7395191   0.3309483  -0.7070683
   2.1433470   0.2714976  -1.0365720   0.1533446   0.2543905  -0.1341668
  -0.2307074  -0.2564298   1.4803264   0.4904983   0.1544361   1.3312705
  -0.1048037  -0.0505670  -0.0920666  -0.2970099  -0.2926368   0.4512510
   0.0680454   0.5069208  -0.0638348   0.0027893   0.2808383   0.2188979
  -0.2353370   0.5340137   1.5679111   1.5185735   0.5698324  -0.3053901
  -0.2241308  -0.0829222  -0.0392122   0.0193648   1.1367741   1.7014998
  -0.6294029  -0.2234289  -0.2620572  -0.0052042   0.3927590   0.1463292
  -0.6949242  -0.5689576  -0.0457370   0.6135603  -0.6232236  -1.4465271
  -0.0489464   0.0241944   0.0757888   0.3601364  -0.5861602   0.0304780
  -0.5001425   0.0479646   0.0315477   0.0796322   0.1177110   0.0912978
   0.5695099  -1.8992590  -0.4232450   0.1889058   1.0993700  -0.8114629
   0.0040997   0.1949555   0.2229098  -1.0678264   0.7206999  -0.2146341
  -0.0325170   0.8736287   1.9788916   0.0792301  -0.0801429  -0.0440856
   0.2575754  -0.8822914  -0.4325646  -0.1627298   0.8748481  -0.8642132
   0.0272112  -0.0948070  -0.0379133   1.9293932  -0.6697844   0.0497022
   0.7548316   0.2691326   0.2306730  -0.1867657   0.2090494   0.1512691
  -0.0857063  -0.0278679   1.3439566   0.9772025  -0.6398953  -1.2291199
   0.1624591  -0.0600198   0.0171562  -0.7277622  -0.2772221  -0.6966639
  -1.0517700  -0.4654721   0.9861198  -0.2260267  -0.0796713   0.0727509
   0.8138040   0.1266078   0.5717396   0.4351641   0.1437504  -0.3367194
   0.0655375  -0.3470352   0.1541448   0.0061227   0.8054613   1.4814041
   0.5475956  -0.8836256  -0.8260682   0.0662415   0.0953113  -0.0112438
   0.3278042   0.2922750  -0.6157234   0.1021553  -0.5955997  -0.9715073
  -0.0219932  -0.0729632   0.2410225  -0.2764727  -0.3293993  -0.8179671
  -0.6444588   0.5406135   0.9166001   0.1008547   0.3201741  -0.0421722
   0.6606311   0.4067674  -0.1696392  -0.5629255   1.2387371   0.2107720
  -0.1061554   0.0733507  -0.0089746   0.7887307   0.5215664  -0.5098869
  -1.0949907   0.3018706   0.2238113  -0.2742674   0.2380530  -0.0229157
   0.6597006   0.2848046   0.8408169   0.3177613   0.0961577   0.2323543
   0.0316590  -0.2521980   0.1014012  -0.3582677   0.4053023  -0.0287911
  -1.1592008   0.6648245  -0.6163156  -0.1760044   0.0303912   0.1719207
   1.0926855  -1.1549221  -1.5130341  -0.0883302   2.2005041  -0.5369657
  -0.3495301   0.3206647   0.1377186   0.8916700  -0.5713547   0.5681366
  -0.4339634  -1.9097759  -0.4558748  -0.1513651   0.1594425   0.2311083
   0.0533361  -0.3324653   0.9552650  -1.1273947   0.1231551  -0.1852429
   0.3725076   0.4304975   0.5575664   1.7358708  -1.0678335   0.4414318
  -0.3992938   0.9087152   0.0425555   0.3475083   0.2500461  -0.2763211
  -0.3961521   0.0586869   0.0881426   0.1122436  -1.2672783   1.3670202
   0.0422278  -0.1049509  -0.3045159   0.6820162  -0.0494785   0.0581189
  -0.5508680  -0.5204713  -0.8348097   0.0996992  -0.0223265  -0.0898923
   0.5995944   0.6743276  -0.1804892   0.1306238  -1.0297536  -2.7040935
   0.0149129   0.3545105   0.0776359   0.6817188  -1.2400234  -0.1345946
   0.2250186  -0.4567456   0.4720339   0.0588436   0.3596841  -0.1482424
  -0.6220313  -0.8842688  -1.1563648   0.7294744   1.4826466   1.8715574
   0.2412067  -0.1970368  -0.0818041   0.0523911  -0.1678258  -0.0633490
  -1.6118581  -0.2220855  -0.1163035  -0.2419043   0.0564575   0.0913884
   0.1113531   0.3280939   2.0073192  -0.5309373  -0.8535116  -0.1186449
  -0.1787420  -0.0761057  -0.0422891   0.4185816  -0.4441231  -0.3368190
   1.9399476   0.3180670  -0.3006120  -0.2104120  -0.0572526  -0.2235922
   0.7448151   0.4577375  -0.2361089   0.8031912   0.5541834  -0.3621660
  -0.0469260  -0.2057237  -0.2326479   0.3602730   0.2918959  -0.0232763
   0.0081010  -1.7922765   0.0475837  -0.0319821  -0.0864015   0.2406834
   0.9844055   0.6534102  -1.4570613  -0.1421559   0.1467272   0.6324936
  -0.2004148  -0.4375247  -0.1105069   0.6088066  -0.5779534  -0.3212033
  -0.0171912   0.8657040   0.4520642   0.2695134  -0.1621043  -0.0288212
  -0.6904665  -0.8691524   0.3940129   0.2776698   0.0745392   0.4000834
   0.1057515  -0.0142684   0.4965960  -0.3265320  -0.4987349  -0.0990799
  -0.7329808  -0.2576115   0.0186679  -0.2297155  -0.1119165  -0.0677217
  -1.0759413  -0.8934392   0.9564801  -0.1049754  -0.8951035   0.6118540
   0.1134141   0.0709507  -0.0693305   1.0080514   0.1589222  -0.9577112
   0.2897191  -0.8609964   0.2108788   0.0764308   0.0837930   0.0997903
  -0.3943844  -0.5425447  -0.3149022   0.0695260  -2.4047611  -0.8715373
   0.1353559  -0.4252982  -0.4877842   0.3643998  -0.6417390   0.9374981
   0.8298411   0.4661886  -0.3497313   0.0370509  -0.2780346  -0.2017308
   0.5747042   0.1885341   0.0680955   0.6128359  -1.1527288  -1.0477314
  -0.0352561   0.1999432  -0.2484968   0.1080886   0.0193290  -0.8600714
  -0.5986379   0.7154489  -0.2409580   0.1564838  -0.2906083   0.0347793
  -0.1961777  -1.0037957   0.0789778   1.3216546  -0.8492123  -0.2030741
  -0.0217327  -0.2061648  -0.0846440   0.4364272  -0.4667301  -1.0041392
  -2.0792487   0.2408634  -0.1091095  -0.2787123  -0.2712667  -0.1352688
  -0.2879396   0.1073344  -0.5228637   0.9412577  -1.6776698  -0.6403124
   0.0501066   0.0844747  -0.0323893  -1.5428919  -0.1694878   0.3000838
  -0.7661781   0.7033952  -0.8961393   0.1962548  -0.1928513   0.2956414
  -0.4866579  -0.6194417   1.2234583   0.3230071  -0.9110615  -0.4304427
  -0.0948207  -0.1782200   0.1786665  -0.0241765   0.5410661   1.8890628
   1.5487850  -0.4101714  -0.2974411   0.0904126  -0.1421635  -0.2807708
   1.3527656  -0.1412507  -0.1252461  -0.1254402  -0.4333896   0.6066667
  -0.0011385  -0.2728418  -0.2851598  -0.4932514  -1.5780175   0.2649822
   0.8084272   0.4666116   0.8342232  -0.0496361  -0.6109954  -0.1315557
  -0.3047037   0.1474210   0.4716178  -0.0928499   0.6365843   1.2417485
  -0.3863673  -0.1391534   0.2282296  -1.5750256   1.5762227   0.4398265
  -0.8282686  -1.1354795  -0.0237042  -0.1675413  -0.1461128  -0.0700556
   0.3777823  -0.1802758  -0.3011447   0.1427943   0.8422688   0.9084633
   0.0287180  -0.2663501  -0.1518164   0.5374300   0.8996847  -0.1096388
   0.4663934  -0.0026287  -2.0060172  -0.0295557   0.1819933  -0.2478948
  -0.2622414  -0.4672738  -0.3404348   0.1797346   1.2561324  -0.6349103
   0.0935087   0.1032004   0.1542646   0.5828633   0.3597777  -2.4916523
   0.1487500  -0.1127491   0.7072700  -0.0445458  -0.2384674  -0.2208482
  -0.7647657   0.8493580   0.7662601   0.1609939   0.2051410   1.0627645
   0.1328199  -0.1897018   0.1342779   1.8177508   0.8451460   0.2964718
  -0.0591467   1.0111433  -0.2495496   0.2125113  -0.0219881   0.1487953
   0.4996126   0.7736208   0.6017665   1.0411850   0.0037855  -0.1682278
  -0.1304889  -0.1470805   0.0081203  -0.1126630  -0.1429676  -0.3883031
  -0.5653694  -0.2903582  -0.9240560  -0.0151672   0.0539457  -0.1513360
   0.3550573  -0.7121707   0.7243510   0.0070895   0.8259590   0.4668739
  -0.0783289   0.2742172  -0.1560374   0.2235847   0.4773565   0.1219065
   0.7614317  -0.4558361  -0.5361260  -0.0403503   0.4712703   0.1373548
  -0.5970833   0.6905355  -1.1439931  -0.5094811  -0.5069357   0.1825102
  -0.1104143  -0.1093344   0.0012064   0.7232693   0.7396191   0.7504457
   1.7237562   0.0142157  -0.9622763  -0.1118270  -0.1664150   0.1837311
  -0.1353703   0.8906734  -0.5356314   0.1665095  -0.4960098   1.4050596
   0.1074395  -0.2061456  -0.0861014   0.3006040   0.1756774  -0.2238140
   0.3440144  -0.9404143  -0.7334828   0.1163551  -0.0478005   0.1024353
  -0.8793139  -0.2563289  -0.8189701  -1.0461392   0.3988102   1.2725478
   0.1367335  -0.0752216  -0.0667724  -0.0550322  -0.3190608  -0.6194634
  -0.3716458   0.3596006  -0.7213818   0.0743771  -0.0289041  -0.0857969
   0.4747013   0.4379233   0.3381450  -0.1189295   0.1606993   0.7514609
   0.1858576  -0.1307794   0.0204293  -0.2479079  -1.1314191  -0.9987409
  -1.9223570   1.5402442  -0.3252224  -0.4431219   0.0821499   0.1161705
  -0.0473804  -1.0348155   1.7246186   0.2212558  -0.6037585  -0.0328274
   0.1900562   0.3366418   0.0068309  -0.3691728  -0.5666205   0.5946121
  -0.2315301  -1.0501609   1.9478714  -0.1453420  -0.1988335  -0.1558338
   1.0468781   0.4093726   1.5454736  -0.8680757  -0.7672902  -0.4130775
  -0.2035255   0.1900094   0.1579495  -0.6211562   1.4553378  -0.3824030
  -0.3711075   0.4472586  -0.8774484   0.0368118  -0.4169502  -0.1286343
   0.6832222   0.0104007   0.7239018  -0.1921214   0.1489174   0.3315543
  -0.2497313  -0.0749194  -0.0777197  -0.3740200   1.3414122   1.1090372
  -0.3973924  -0.0574470   1.1955161  -0.3274665   0.0253131   0.0520875
  -0.3994591   0.6944318  -1.8912219   0.0476452   0.0615225   0.8981903
   0.2362989  -0.1534492   0.3465237   0.4702377   1.1492733  -0.1277717
   0.3006144  -0.1791462   0.3317370   0.1307866  -0.2570226   0.0470250
  -1.2339681  -0.3739425  -0.6471118  -0.3727489   0.3759174  -0.9044495
   0.2112020  -0.2481113   0.3903315   0.3819771   0.0078896  -0.7128176
  -0.8671521  -2.0581632  -0.5948327  -0.1079772  -0.0847650   0.0126925
  -1.4406668  -0.4734948  -1.1557281  -1.2290574  -0.7054375  -0.3320541
   0.1096566  -0.1451303   0.3823103   0.0278265  -1.5327919  -0.5622156
   0.3240827  -0.2748776   0.5089133  -0.0415613  -0.1973624  -0.2906261
  -0.6168627  -0.0200914   0.6255172  -0.5944246  -0.3237117  -0.5862602
   0.0878175   0.2464598   0.0473163   1.1049426  -0.4984464  -1.5837986
  -1.0990477   0.1224823  -1.0455219   0.0887108   0.2694938  -0.0368506
   0.4627919   0.4647015  -0.4876575  -0.2516773   1.7165239   0.4453106
   0.2971899   0.2274216   0.1584141  -0.8518972   0.3172877  -0.5517195
  -0.1066545   0.8677555   1.4747210   0.2141841  -0.1055696  -0.1178654
  -0.3642255   1.2382890   0.9949397   0.2372966   0.4074519  -1.6882452
   0.0479754   0.1707694  -0.2729112  -0.9489536   0.5512984   1.4195297
  -0.2779868  -0.7387109   1.1770872   0.2097150   0.3201485   0.0662983
   0.0041868   0.1830344   0.5372422   0.9783574   0.6604245   0.8158352
   0.1596635   0.1383919  -0.0528852  -0.9783962   1.0227170   1.0309339
   0.5751581   0.6242450  -1.8015653  -0.1111917   0.1321732  -0.1013244
  -0.2994826   0.0337564   0.2179327  -2.1863492   0.1097608   1.0026163
   0.1511923  -0.0580331   0.0316569   0.3080047  -1.1380253   0.5445105
  -0.4250149  -0.0890576   0.6468771  -0.0692313  -0.1728566   0.1503330
  -0.5083013  -0.8427260  -0.2183534   0.7108435  -0.6573937   2.0423522
   0.0844609  -0.0171069   0.2046905  -0.6897940   1.7741092  -0.1337809
  -0.8502414  -0.0544714  -0.3757669  -0.0584559  -0.0990540  -0.4471451
   0.3695772   1.3956044   0.9298882  -1.1533074  -0.0582428  -0.5701863
  -0.0914168  -0.2496315  -0.1046433  -0.9498407   0.7821366   0.5370941
   0.2076548   1.1171064  -0.3980340  -0.1731541   0.0263146  -0.2074593
  -1.0098484   0.4408017  -0.3763423  -0.4977822   1.3948593   0.7290944
   0.1521010   0.0693738   0.1614986  -0.7185806  -0.5750543   0.5019273
  -0.4993135   0.6207786  -0.6134889   0.1828388   0.1337911   0.2114025
   0.3963566   0.8767413   1.1645629  -1.0544932  -0.4213745   0.8670673
   0.1483895   0.0772008  -0.2748922  -0.2084271  -0.4444639   0.0612926
   0.8719010  -0.3099974   0.5514475  -0.1532838   0.2885529   0.0406626
  -1.5951312  -0.0698830   0.8636059   0.9404188  -0.3657029  -0.6100521
   0.3295267   0.0125424   0.2722956   0.6439058  -0.9281399   2.3696523
   0.0042259   0.3914752   0.8301955  -0.0188331   0.1834769  -0.2694002
   0.8168416   0.9726624   0.3100913  -1.7478316  -0.9865925  -0.7489560
  -0.1253221   0.0104600  -0.1741033   0.1629180   1.8802012  -0.9656016
  -0.6355265  -0.7087252   0.0949381   0.1380885  -0.4280459   0.1403490
   0.3954582   0.6491504   0.9252608  -0.1199481   0.8025748  -1.5729647
  -0.1606025   0.1044544  -0.1169337   1.0556743  -0.0125503   0.2807494
   0.6975324   1.2373501   1.1376753   0.2009119   0.2317739   0.1575389
   0.6648419  -0.1753713   0.6332619  -0.0695426  -0.2479431   1.0120932
   0.2426969   0.0114524  -0.1448538  -1.3161701   0.9618654   1.0563464
   0.3744367  -0.2409557  -0.5888414   0.2252760   0.2820765   0.1662673
   0.8776331  -0.3796204   0.3331907   0.0731029   0.6728446   0.6812147
   0.2525071  -0.0064669  -0.0509550  -0.0805454  -1.5028200  -0.1763239
  -0.1696589   0.6241218  -1.0498964  -0.1103419  -0.2227856   0.0247185
   0.5625623  -0.6595449   0.4214052   0.4878388   1.1490824  -0.2456343
   0.0770845  -0.4171951   0.1194704   2.0629587  -0.3414107   0.0167079
  -1.1851274  -0.8387905   0.5948232   0.0511135   0.3279006   0.0641617
  -0.1421568   1.1722962  -0.6459860  -0.2188349  -0.4687231  -0.6958044
   0.2111029  -0.0711363   0.1511358  -0.4143637  -1.8418187  -0.9701704
  -0.2809180   0.4760957   0.0884641  -0.1975622   0.1607454   0.2909189
   1.6291909   0.6196777  -1.3272930  -0.7096537  -0.5221013  -0.2495936
  -0.2527275  -0.1397407  -0.4075584  -0.2257740  -0.2953948  -0.0013485
   0.0744016  -0.0592799   0.3189419   0.2939467   0.0299129   0.2514585
   1.4008162  -0.3764427   0.5807047  -0.5504546   0.0754516   0.2335593
  -0.0595708   0.0872552  -0.0282575  -0.3090221  -1.0888389  -0.1944179
   0.7764903  -0.6494002  -1.5691968  -0.0612240   0.3139504   0.1990636
  -0.9723262   0.8335873  -0.4692016  -0.2093972  -0.7911986   0.1710680
  -0.1322178   0.0204261  -0.0708300   0.1696987   0.2756346   0.9503407
   0.8960885  -0.9838791  -0.1150809   0.2433158   0.0343327  -0.0793453
   0.1002648   0.8006032  -0.7827014   0.5509777   0.6973858   0.8121172
  -0.2162291   0.4384830   0.0568835  -0.8854655   1.2620306   0.3810794
  -0.9241196   0.8398147  -0.0508933  -0.2277073  -0.2923178  -0.0004686
   0.2080015   0.2633760  -1.1802944   0.0157399   0.6545683   0.2869518
  -0.1091527  -0.0716221   0.0910949   0.9857014   0.0111080   1.0491985
   0.1097375  -0.9001249   1.2666029   0.2054000   0.0072320  -0.0927399
   0.3598486  -0.3311484   0.2873062  -0.7294685  -0.4164009   0.0534693
  -0.0032908   0.3039905  -0.0401086   0.9382394   0.3112781  -1.0232973
  -0.7564819  -0.9448490   0.7989975   0.1103704  -0.0174037  -0.3348801
  -0.7918245  -0.4739689  -0.1725429   0.7388001   0.5859420   0.4316030
   0.1435442   0.0733323  -0.4366770  -1.1583761  -1.2269393  -0.0862694
  -0.2160226   0.7832795  -0.4405694   0.2078152  -0.0256041   0.0173749
   0.4632970   0.4191773  -2.1968670  -0.8064059  -0.2267295   0.5621661
  -0.1562685  -0.1538544   0.1015464   0.1519476   0.2006964   0.2923122
  -0.6450042  -0.6587647   1.0444648   0.3317753  -0.2246043  -0.3207480
   0.3376650  -0.5093035  -0.1470742   0.9633102   1.2250977   0.7726216
  -0.0958728  -0.0591505   0.0408138   0.6032470   0.9896783  -0.0052208
   0.8945870  -0.1031833   0.2181758   0.0636108  -0.3146676  -0.0893161
  -0.3737999  -0.3330012   0.4240700   0.1694128  -0.9532337  -1.0886818
   0.1114175   0.1299888   0.0860942  -0.2055544  -1.8270249  -0.8464047
  -0.8462021   0.4968023  -0.4001147   0.1131775  -0.2079846   0.0473520
   0.5055320  -0.4912404  -0.1642446  -1.0930420  -1.0147725  -0.3229802
  -0.0113190  -0.1331061  -0.1196805   0.6423302   0.2441953   0.4221169
  -1.5928769  -0.5308641  -0.5377947   0.2071232   0.0219697  -0.0397127
   0.4846763  -1.0660102  -0.5760597  -0.4520377   0.0436783   0.3486628
   0.1623151  -0.0798547   0.1114884  -0.4886554   0.3526860  -0.4789699
  -0.4877235  -0.0377528  -0.1396534  -0.1182010  -0.0473427  -0.1392395
  -0.3705281  -0.0484384   0.5373733  -0.0978176   0.8539173  -0.7618747
   0.1801276   0.0040503  -0.1356631   0.0990302   0.0136402  -0.3975881
   0.7117947   0.7465745   0.1759110   0.0530800   0.3564781   0.0179832
  -0.1327194   0.0146682   0.7408929   0.2956618   0.8882128   0.2131800
  -0.2998026   0.1763911  -0.3744659   0.8566214   1.7252614  -0.8110297
   0.2565694  -1.2614748  -0.4181691  -0.1238066   0.0931272   0.2073660
  -0.5949513  -1.9175223  -0.2234345  -1.5641339  -0.2359884  -0.4286824
  -0.1103250  -0.2354205   0.0269889  -0.5038756   0.3542906   0.2334471
  -1.0040685   1.3828150   1.0619916  -0.0296206   0.0813317  -0.1432230
   0.9128672   0.7231330   0.6406066   1.9053931  -0.7110725   1.2608097
  -0.0877225  -0.0208684  -0.2586087  -0.6209219  -0.0739491   0.3970921
   0.6353568  -0.3293121  -1.1852328  -0.2089970   0.1445712  -0.0877120
  -0.4953416  -0.6262518  -0.0377898  -0.7132339  -0.3392531   0.2777550
   0.2406343   0.0634831  -0.0635324   0.3362255  -0.9888362   0.6099849
  -0.5585921  -0.4392659   0.3817526   0.1770197   0.0712746  -0.0133935
  -0.3542541   0.7063714   0.1866767   0.0681373   1.1412159   0.8963609
  -0.1067969  -0.3398020  -0.2098535   0.5361238  -0.1701590  -0.7414172
  -0.5350245   0.1188844   0.0025495   0.2582791  -0.3010475   0.0063977
   0.1420644   0.0922104   0.0563813  -0.5016441   0.2479058   0.4480030
  -0.2256150  -0.0174180   0.2341311  -0.4435293   0.0928722   0.6148053
  -0.8398443   0.3657794  -0.2581407   0.3690399   0.1232236  -0.2647521
  -3.0603395  -0.1308540   0.2897922   1.1009517  -0.3920551  -0.8643949
  -0.1422908   0.0671530   0.4595150  -1.0992968  -0.2060262  -0.2361433
  -0.3006891   0.1990583   0.4114235   0.2052260   0.5108581  -0.0449364
   0.9297003   0.6598734   0.8378990  -1.5276852  -1.5280309   0.0944298
   0.4384290  -0.0041713   0.0088057  -0.6849382   0.6428597   1.8350856
  -0.2393384   0.7613804   0.4519220  -0.0823324   0.0976294  -0.3154690
  -1.4173006   0.3183944  -0.1456574   0.2292588  -0.7071036   0.8582153
  -0.1016232   0.1507580   0.1134968  -0.4545428  -0.5141159  -1.1902300
  -0.3909105  -1.7234709  -2.4851282  -0.0153153   0.3386478   0.0242805
  -1.2603810   0.8844297  -0.2621822   0.2844195  -0.2669560   0.4703321
  -0.0006501   0.4066718   0.2250374  -1.1817060  -0.5955281  -0.1350818
   0.7050619  -1.5907111   1.1875061   0.3175206   0.1464818   0.3944575
  -0.2618547  -0.9543835  -0.0276646   0.5357935   0.5086451  -0.5006273
   0.0273424  -0.1026882  -0.0393646   0.0149215   0.5813655   0.3234442
   0.1252696  -0.6644541   0.4994182   0.2795148  -0.2333539   0.1139018
  -1.5113257  -0.0985779   0.9716652   0.5934942   1.0110425  -0.9680659
  -0.2671598  -0.1058139   0.0122005  -0.9584088   0.3347175   0.2957920
   0.5464823   0.4972584   0.0661326  -0.1028069   0.0018105   0.1142212
  -0.8640443   0.2887883  -0.5449231   0.0052711   1.3571879   1.5666487
   0.0525999   0.1213259   0.1013184  -1.1254076  -0.3363492   1.2283705
   0.6604316  -0.6688910  -1.0276330  -0.0008753  -0.1637709   0.2392084
   0.2558406  -0.8120483  -0.7500743  -1.1680090  -0.5236444  -0.0008713
  -0.1984205  -0.0444852   0.1987468   1.1306453   0.6556374   1.1772293
  -0.6222547   1.0751085   0.8264130  -0.1954744  -0.2275509  -0.1208534
  -1.0970331  -0.1045088   0.6422933  -1.5064300  -1.4556334  -0.0221041
  -0.2407243   0.0559361   0.6067166   0.3726908  -1.1814349   0.1025668
   0.0226982  -0.7252769  -0.2336396   0.1222376  -0.1405061  -0.4939412
  -0.2539641   0.9567617  -0.4522835   0.9491772  -0.3655847   0.4731698
   0.0809754   0.1948409  -0.0363629  -0.4341508  -0.2179448   0.5615363
   0.7148159   0.3375652  -0.2750833  -0.0405424  -0.0841142   0.0375359
   0.8652403   0.3839416  -1.5739192  -1.1006321   1.4695377  -1.2835140
  -0.1033593  -0.4096707  -0.1406440  -1.3612603  -0.4149327  -0.0166596
  -1.4653275   0.2677029  -0.1573956   0.0872034  -0.0549013  -0.4187695
  -0.0952532   0.1734027   0.8194944  -0.7154245  -0.3681318   1.1102558
  -0.1469857   0.0338145  -0.2904571   0.2547458   0.4221182   1.1247740
  -0.3995814  -0.4436589   0.7123292  -0.1045625   0.1090705   0.1932868
   0.3118721  -0.4587693   0.5427705  -0.2038254  -0.1183436  -1.2466259
   0.2856714   0.2624496  -0.0314827  -0.3302995   0.2243808  -0.4008939
   0.3846469  -0.0977738   0.5833451   0.1374272  -0.1392975   0.0476474
   0.3059708   0.3402083   0.6828651   0.3737881  -1.5312697  -0.5213067
   0.1785717   0.0146378  -0.0342266   0.8693966  -0.4155920  -0.8247029
  -0.2205216   1.4206603  -0.3292382  -0.0108317  -0.0699513  -0.1322121
   1.0317497  -0.1823037  -0.3135926  -0.4471011  -0.3412221  -0.6764320
  -0.2509774  -0.0531587  -0.3679583  -1.1123034  -0.5267534   2.0155840
  -0.2891576  -0.7970817  -1.2684252   0.1599207   0.0885424  -0.4388694
  -1.4954959  -0.0141340   0.1735322   0.3970227  -0.4460074   0.0360896
   0.2796155   0.0442622  -0.2774526   0.6734042   0.1428137  -0.3863860
   2.0699956   0.1094422  -0.0424556  -0.2566667   0.1885908   0.0241636
  -0.1251353   0.6201121  -0.1754866  -0.4553438  -0.5100762   0.0741307
   0.0344206  -0.1581382  -0.0716273  -0.0406180   0.6970366   0.0851503
   0.9732365  -0.4057874  -0.5616832   0.1672503   0.0278150   0.0389654
   0.8839353  -1.4105837   1.1509190  -0.7745344   0.1991933  -0.0399207
   0.0629880   0.1610114   0.1938024   0.7934480   0.0532299   0.1355029
   1.2928572   0.3037390   0.1270399  -0.1686686   0.1514898  -0.0262851
  -0.9970419  -0.4524402   0.4173048  -0.6340985  -0.6158311   0.2248577
  -0.3318312  -0.0250726   0.1190925   0.2477411  -0.1630654  -0.2036499
   0.0906454  -0.0752761   2.4774024   0.0319065   0.0659373  -0.0014477
  -0.3160796  -1.7113663  -0.2867738  -0.6294197   0.3643006  -0.3680739
  -0.0002777  -0.2280106   0.0075715  -0.2835010  -1.8279972   0.2023004
  -0.6217089   0.0933385  -0.3986290   0.0190279   0.1419878  -0.1331677
  -0.7043094   0.7951721   0.1339372  -0.1475400  -0.6968719   0.8796991
   0.2292106  -0.1576592   0.2538805  -1.5564563   0.4319359   1.6709353
   0.8710531   1.5303138   0.5245807  -0.0490145   0.0467595  -0.1986862
   0.8100353   0.0255013  -1.1082280  -1.3988156  -0.6479575   1.0592744
  -0.1189009  -0.0992510   0.2531886  -0.7648382   0.1158771  -0.4900374
   0.9614370  -0.1053120  -0.2790697   0.3184603   0.1768837   0.1766123
   0.0349148  -0.7866183   0.6803485  -0.5464656   0.4691119  -0.1803314
  -0.0184899  -0.2241261   0.2814315   0.1202198   0.0429725   0.3096435
  -0.1929096  -0.3522506   0.4836274   0.2919188   0.1498649   0.2791643
   0.2445537  -0.3638897   0.2437766   0.4807938   1.1702358   0.5590707
   0.1253422   0.0252139   0.3857863  -0.1559482  -0.0530362  -1.1233888
  -0.0455407  -1.0136582   0.4579118  -0.0535124   0.1495921   0.0273862
  -0.6182646   0.1888998  -0.8191968  -0.9883236  -0.1836313   0.4956146
  -0.0758059   0.1702676  -0.3833253   1.6338173  -0.7587441   0.0713639
  -0.1308634  -0.6708308  -0.5247341   0.0947643  -0.1848270   0.0547895
   0.3597795  -0.3219393  -0.6007951   0.7027649   0.7310070  -0.8284257
   0.3318806  -0.1016689  -0.1013507   0.4426143  -0.6241567  -0.0013846
   0.7346567  -0.1234601  -1.2805161   0.0108265   0.0007020  -0.0713298
  -0.9860634  -1.8162230  -0.5111507   0.5485474   0.5473527  -0.3254852
   0.0687254   0.0071010  -0.2665353  -0.3961884   0.5349466   0.9453601
  -0.2770822  -0.0123102  -1.4317616  -0.1565162  -0.1296133  -0.1097458
  -0.0906642  -0.5032724  -1.0170920   0.0597876  -1.3886851  -0.8791220
   0.0630397   0.1062961   0.0351539   0.1723517  -0.6447064   0.2447510
  -0.6062070   0.0698001   0.1437058  -0.1569718  -0.1425886  -0.2901778
  -0.2182267   1.3962444   0.5104138   0.5899243  -0.2658227  -0.5332388
  -0.1289514  -0.0531666  -0.2097870   0.8747923   0.3464453   0.2630617
  -0.1188465   2.1752503   0.4615405  -0.0543716   0.3660840   0.0316675
   0.6151493   1.0466073  -0.2068063   0.4476382   1.1539512   0.4980564
  -0.3002752   0.0482108  -0.3508531   0.2874286   0.0289113  -0.1276998
  -0.0796536   0.4940338   0.5640613  -0.0804546   0.2014953   0.0549850
   0.7435020   1.1576060  -1.7057679  -1.8196242   1.5468134   0.0592675
   0.0804988   0.2908933   0.2373687   0.0302054   1.0705950  -0.2751676
  -0.2171401   0.5378218  -0.3030347  -0.0934509  -0.2244521  -0.0248125
  -0.5488625  -0.1158164   0.2271577  -0.2103278   0.1337012   0.1372660
  -0.0627821   0.0124013  -0.2215178   0.5864472   0.6287501  -0.8830624
   0.8604814   0.6548458  -0.8429525   0.1627195   0.0892276  -0.0172805
  -0.0393982   0.4341513   0.5414382  -1.2015022  -0.7735630   1.1637906
  -0.1239185  -0.1963835   0.0879057   0.1401624   0.2346588  -0.5329492
   0.8973718  -1.7128221  -0.6636309   0.1223709   0.2045290   0.0987684
   0.5072463  -0.8114835   2.1404445  -0.6591888  -0.5277365  -1.7786710
   0.2537408   0.1064957  -0.1404209  -0.0926926   0.9171799   0.0945791
   0.4196405   0.3222896  -0.3863403  -0.3556584   0.1725969  -0.0119958
  -0.8898150  -0.4044087   0.3089859   0.0680777   1.0174811  -0.1112040
  -0.1110153  -0.0091917   0.3026935  -0.6072112   0.8693447  -0.9104807
  -0.4076243  -0.9160419   0.0662047   0.3656778  -0.3244636  -0.0222753
  -1.5424997   0.0594758   0.4514644  -0.1974595  -1.2598307  -1.4846969
   0.1871591   0.1176665  -0.2064345  -1.3706927  -1.0070930  -0.6241322
  -1.1472015   1.0252545   1.3016376   0.1090293  -0.0387361   0.1443035
   0.1660190  -0.1777369   0.1436132  -0.3773211  -0.3182691  -0.3964310
  -0.0326567   0.1352081  -0.4515985   0.6271395  -0.3073331  -0.9068801
   0.3804243   0.5990788  -0.5012363  -0.0455336   0.2142742   0.1684223
  -0.0415035   0.5324501   0.7017162  -0.4803742  -0.9069023  -0.2174540
  -0.0248594   0.3364086   0.3077252   0.5288510   0.1683866  -0.3681343
   0.7211780  -1.8407552  -0.7449527   0.1023934  -0.2464062  -0.0600840
   0.5297260   0.3693317   0.5160182   0.0023777  -0.6606544   0.0699751
  -0.1482702   0.0257089  -0.1237395  -0.7021657   1.1485071   0.8692087
  -0.1194846  -0.8456664   0.1495846  -0.1414428  -0.1599080   0.0757408
   0.5686609  -0.3074154   0.1725948  -0.6770260  -0.7057329  -0.5016840
   0.0204209  -0.1254561   0.0675144   0.8647847  -0.3830536  -0.5029822
   0.6449386  -0.2695405   0.2400722   0.0487245   0.1523031  -0.3047170
   0.0751081   0.5898804   0.5487598  -0.1282345   1.2349058   0.4271798
  -0.1985502   0.1878681  -0.0013776  -0.7740703   1.6202650  -0.3359819
   1.1017784  -0.3232955  -0.3213558   0.1635529   0.1470452  -0.1452956
   0.2133004   1.3120571   0.2271589   0.5407178   0.6561638  -0.1570447
   0.1762612  -0.2587459   0.2612242   0.5092970   0.3552123   0.6462578
  -0.1023896   0.7740116  -0.0633752   0.3161929   0.0323970   0.2538846
   0.7188829   0.9982304  -0.3497389  -1.4924484  -0.8384658   0.5011456
   0.0293230   0.4570394  -0.2138411  -0.3128429  -0.6922912  -0.5287289
   0.4410858  -1.0329994   1.1217483   0.3102440   0.1523417  -0.3298529
  -0.8003678   0.2877867  -0.3942080   0.0317475   0.7523202   0.1490141
   0.1360504  -0.2060730   0.1952317  -1.4701544  -0.4543525   1.0784473
   0.8135235  -0.9790547   0.0875510   0.2826994  -0.2066218  -0.0384870
   0.0190091   0.6732919   2.0137954  -0.3334908  -0.1043488   0.0829087
   0.0751640   0.1670251  -0.2562069  -0.5293175  -0.9100814   2.1780603
  -0.7312587   0.7840117  -0.3463959   0.2513399  -0.1120164  -0.0665331
   0.5745764   0.9298252   0.8391976  -1.7494264  -0.1982433  -0.3132348
  -0.2356663   0.1339695  -0.2096416  -0.1068001   0.6678883   1.5434954
   0.5220318  -0.3597210  -0.1822309  -0.0944646  -0.2233638  -0.2518971
   0.2505920  -1.4023536  -0.4719939   0.6990653  -0.0492598  -0.3089765
   0.0033991  -0.2069758  -0.3113278  -1.5068491   0.3873756  -0.4139880
   0.2422768   0.6219044  -0.1657793  -0.0836361  -0.0527733  -0.2344970
  -3.2386162   1.3978132  -0.4614673   0.1004556   0.2121274  -0.0569551
  -0.1374382   0.1353037  -0.0322429  -1.3287545   0.3484114   1.4564813
   0.4242799   0.2472239  -0.4001798  -0.2065362  -0.1968053  -0.0521398
   0.4483531  -1.5658449  -0.8460548   1.3693500  -0.5559325   0.0674484
  -0.1920066  -0.1014373   0.3069778  -0.2227669  -0.0375111  -0.1131919
   0.2683362  -0.3909998  -0.8929601  -0.2304410   0.0263759  -0.0198137
   0.5247230   0.9629809   1.2725922   0.0933822  -0.3980406   0.2483635
  -0.0972315  -0.0087961  -0.1578528   0.8312438  -0.6856247   0.3609321
  -0.5146343  -0.7224848   0.7323608  -0.0517734  -0.3626216  -0.2174268
   0.0427381  -0.3075060  -1.5493828   0.8764630  -0.8316072  -0.6557399
  -0.1901385   0.0147944  -0.0325052  -0.5286198  -1.2888827  -0.2422495
   0.8770316   1.3289435   0.3264378  -0.2310278  -0.0646676   0.0986753
  -0.1461146  -0.4237148  -0.6846415   0.5764591   0.1788569   0.8186786
  -0.0582760   0.1963321   0.3040414  -1.4066538   0.0768301  -0.7143359
  -0.6788301   0.4967412   0.3714884   0.3170176   0.1625471   0.0187911
  -0.3938124  -0.4105226  -0.8631319  -0.8781170  -0.2343583   0.4287093
  -0.1443013  -0.1811881  -0.2852788   0.0908964  -0.7901722   0.1872545
   0.5458472   0.1301570  -0.6370312   0.4495661   0.1557190   0.0511593
   0.6004022  -1.5481992  -0.5835429   0.1187452   0.6320339  -0.1411864
   0.3185228  -0.2049704  -0.1678608  -0.8182694   0.6063787   0.1048287
  -0.9157611  -0.4986044  -0.1963631   0.0952134   0.0875107  -0.0375510
  -0.8118635   0.5766445  -0.3122545   0.2661597   0.6076056  -0.0883181
  -0.2030484  -0.1668375   0.1878481  -1.0242715  -0.2105583   0.1225746
  -0.0702182  -1.2196174   0.0239059   0.3512839  -0.2983001  -0.1343923
  -0.2511394   0.3067921  -1.2270380   0.9842358  -1.4639684   0.3128538
  -0.2031098  -0.1458185   0.0550309   0.4880002  -0.1267651   0.1359596
  -0.2554353  -1.3758243  -1.2366159   0.1588162   0.0086365  -0.2685140
  -0.6493232   0.2892368   0.1796080   0.1661441  -1.0699307  -0.1293416
  -0.1612394   0.1576634  -0.1531724  -1.1143601  -1.4574065  -0.9268556
   1.9819925  -1.2318513   0.3957591   0.0131096   0.1553822  -0.0551992
  -0.3264637   0.1441119   0.1999217   0.0567653   0.0614846  -1.1598245
   0.1625709   0.2194593   0.0715417  -0.1214872   0.8451598   1.2738841
  -1.1273457   1.1805389  -0.9409332  -0.1192772  -0.3736211  -0.2226561
  -0.5866081  -0.3697026   1.8999273   0.6114516   1.0653342  -0.6199051
  -0.0714732  -0.2272817   0.2633944  -1.2737408   0.9164972  -0.2193774
  -0.4813969   0.5987124   0.1018439  -0.3822213   0.2533193  -0.2707558
  -1.0457265  -0.9764033  -1.5034070   0.9081775  -0.4659293  -1.4355793
  -0.0627037  -0.2754977   0.1214681   0.8733416   0.7472867   0.0710614
   0.3448556   0.7251471   0.9134046  -0.1568979  -0.1152799   0.2231459
  -0.9436495   0.6646172   1.3427744  -0.2734254  -1.3420783   0.0633398
   0.1477154   0.0949072   0.0605917   1.0373682  -0.8913746   1.3791863
   0.6742670   0.7078029   1.2770996   0.3417363  -0.0524499   0.0450756
  -2.5607207   0.4926024   0.8230700  -0.3195287   0.1343348   0.4003095
  -0.2094529  -0.0968698   0.0003455  -0.6656753  -1.0866841   0.3960753
  -0.0072695   0.5852308  -0.6780730   0.2247923  -0.1033484   0.0012092
  -1.0695108  -0.7183595   0.1730873   0.2027944   1.3503754  -0.3591262
   0.0901410  -0.0592879   0.0391569  -1.3780187  -0.6760579   0.5895639
  -0.7994632  -0.7846468  -0.5817635  -0.1534091  -0.0312549  -0.2825875
  -2.8245318  -0.8676344   0.1384297  -0.2522297  -0.6731909   0.6004680
   0.2274046   0.2157315   0.0161888   0.0927556  -0.8186784   0.4363677
  -1.1440885   0.0282294  -1.2893760  -0.3254710   0.0687710   0.1997915
   0.7201226  -0.7202719  -0.2063499   0.4848315   1.2146587   0.6188879
   0.2879942   0.0592199  -0.2290488   1.8753742  -0.8032050  -0.1920708
   0.3389338   1.5950090  -0.4105672  -0.0928705  -0.0077067  -0.2775866
  -0.3056766  -0.7585191  -1.1762315   0.3001498  -0.1101601   0.9876859
   0.2411792   0.0441952  -0.2984872   0.9003747  -1.1925809   0.5828798
   0.9859423   0.4646333   1.6910880  -0.0549811  -0.4565890  -0.0235527
  -0.0063730  -0.1994193  -0.6168014   0.1478645  -0.7790051  -1.3438903
  -0.3230832  -0.0531103   0.0838007   0.5453436   0.6216161   0.4481178
   0.6572526   0.6775824   1.3162315   0.2396677   0.1448818  -0.1252268
   1.5853016  -2.2119915   1.5173415  -0.0339589   0.2052291   0.1357361
   0.2195136  -0.0634252   0.0477906   0.8015650   1.1586345  -0.7984026
  -0.2863399  -0.9197168  -0.9933170  -0.1155219   0.0103727  -0.2890081
   0.2466847  -0.0521734   1.1389623   1.5226724   0.9538931   0.6787405
  -0.0957891   0.0806133   0.2099882   0.6198080   0.1289088  -0.9639964
  -0.6477401   2.4761438  -1.7811482  -0.2225644  -0.0837861  -0.0357973
  -1.4097854   0.5622880  -0.2794444  -0.0741378  -0.6862763   0.5976188
   0.1472937   0.0008187   0.2329701  -0.5915695   0.1796873  -0.9796144
   1.9630413   0.2449373   0.6086782  -0.3214432   0.0527198  -0.0443048
   0.6224956  -0.7380757  -0.7383779   0.1164965   0.9515312  -0.7617335
   0.2615637  -0.1103806  -0.1722806  -0.6911546   0.5684171  -0.2134565
   0.1575593  -1.3110870   0.2271196  -0.3236484  -0.1631775   0.2099387
  -0.7641836  -0.0993208  -0.7230865   0.3468556  -1.7465564  -0.9570938
  -0.2526765   0.1161520   0.3701894  -1.2905755   1.6736094   0.1563739
  -1.0281211   0.3840693   0.4805500  -0.0150099  -0.3091649  -0.0352279
  -0.5955974  -1.3068964  -0.7289046   0.4088984   0.2785756   0.5149377
   0.2710497  -0.2889172  -0.2186339   0.6823700  -0.4866269  -0.4235585
   0.9713989  -0.4548409   0.3087505  -0.5730804  -0.0383638   0.2578498
   0.8132538   0.6917783   0.6224498   0.1743646   1.8883040  -0.3261374
  -0.0635408   0.2187411   0.1677057  -0.7903938   0.4287421   1.3741493
  -1.2337617  -0.4596753  -0.5590212   0.1196763   0.4038997   0.0162801
  -0.5453404   1.0024441  -0.1002030   1.2984430  -1.3155473   0.2567532
   0.1030295  -0.0393750  -0.0200236  -0.5420125  -0.0216927  -0.4158605
   0.3824416  -0.9091920   0.6104364  -0.2261474   0.0938740  -0.0609364
  -0.0745314  -0.8107629  -0.4189000   0.2009560   0.8284220   0.5469568
   0.3161732  -0.1049085   0.1104507  -1.6122439  -0.8950230  -0.6318151
   1.6749759  -1.4401970  -1.4354185  -0.3120553  -0.0125997  -0.1203246
  -0.2847705   0.4065768  -1.4363807  -0.4007305  -0.2926889   0.6293731
   0.0479220   0.1616016  -0.1804217  -0.6542490  -0.9305571   0.0279316
   1.1746668  -0.0320614   1.2545259   0.0242259   0.2144629   0.2116503
   0.2259900  -0.3369808   0.6250438   0.2797874   0.2456670  -0.3626681
   0.0404891  -0.0008780   0.2157665   1.2095175  -0.5855337   0.8030434
  -0.0250555  -0.6156921  -0.4382899  -0.1474222   0.2575400  -0.1625957
   1.0920373  -1.4678755  -0.1871370  -0.4564538  -0.1514590   1.0327575
   0.3035379   0.0317704  -0.0623693  -0.0842972  -0.2184144   0.0293270
   1.0700681  -0.3162733   0.5496100   0.1007768   0.2159630  -0.0286021
   0.5998217  -0.7462996   1.0645142  -0.4296430  -0.4792307  -0.4717231
  -0.1825902  -0.3160269   0.1620652   0.6638981  -0.6762614  -0.5104300
  -0.3927045   0.7374055  -0.0851895   0.1726566   0.0876910  -0.1219596
  -0.4575386   0.7244695  -0.9803791  -0.8266727  -0.3568148  -0.7058595
  -0.1839607   0.2518983  -0.2655628  -0.8545100   0.0662461   0.5538447
   0.8108909   1.1126359   0.7031488  -0.0627292   0.2413246   0.2653182
  -0.6841679   1.0186779   0.0152797   0.6322679  -0.4091112  -0.9343341
  -0.1328221  -0.0431778  -0.2637213  -0.1253708   1.0273243   0.0622357
  -0.5926178   0.4356928  -0.0931748  -0.3091374   0.0449221  -0.1892648
  -0.1643379   0.1431132   0.4528295   0.4791784  -0.4469711  -0.1992786
   0.2513101  -0.0789969  -0.2651534  -1.1172864  -0.3669406  -0.7704626
   0.6996423  -0.4095170  -1.3478246  -0.0313483   0.0155204   0.1209970
   1.0205206   0.7596097  -0.3143041  -0.2125337  -0.2162712   0.5156594
  -0.1577527  -0.1075473   0.2198172   0.5286759   0.1129812  -0.2230348
   0.8172505   0.5697417   0.7226815  -0.0056009   0.0767507  -0.4868983
   0.9595048  -1.2487661  -0.3435331  -0.1414158   0.1505349  -0.2163827
   0.3133363  -0.0334811  -0.1272696   0.1170783  -1.4000235  -0.5699956
  -0.4985872   0.7651682  -0.0224577   0.0724012   0.0614749  -0.1853585
  -0.5539186  -0.5489556   0.5098393   0.3061478   1.1380321   0.1465004
   0.1712416  -0.0731914  -0.2218835   0.1603125   0.5298121  -0.0631918
   0.5001993  -0.3267735  -0.6059299   0.0328348   0.0509446  -0.0987322
   0.9569119   0.6382362   0.3760363  -1.1571838   0.9915559   0.3555127
  -0.0434410  -0.1591674   0.3584419  -0.2284743   0.6042553  -0.4415903
   0.1659977   0.5823664  -1.1331205   0.0875300   0.0527512  -0.0537548
   1.0604203  -0.1980988  -0.4062665  -0.8679328   0.8567659  -1.2036830
  -0.2158245   0.4289538  -0.0051196   0.9011294  -0.9550123   0.6665564
   0.7772270   0.1265199  -0.2418707   0.2749217  -0.0470203   0.3611873
  -1.1632887   0.1632471  -0.7648581   0.5392406   0.1239791  -0.9971268
   0.1286982   0.1066522   0.0605324  -0.7380283  -0.1627044   0.2131669
  -0.5920408  -0.4118457   0.1451529  -0.3587812   0.0353828  -0.1852191
   0.4025128   0.8758424  -0.4786679  -0.6097230  -1.1735215   0.4321613
  -0.1855258  -0.0039636  -0.0264948   0.2460850   0.1991521  -0.3377974
  -0.3698905  -0.5252250   1.5454116   0.1421641   0.1825672   0.1565043
  -0.4003143  -0.0906702  -0.0138404  -0.8920910  -0.6628050  -0.4264587
   0.0598339   0.1039472   0.0993510  -0.2512206  -0.3302065  -1.4057682
   1.1906964  -1.2915163   0.1512460   0.1101706  -0.2994067  -0.0054056
  -0.9910085  -0.8428709   0.3838200  -1.2017461  -0.0772103   0.0937708
   0.0234878   0.5480056   0.0162022   0.1065672   0.6114556   0.5995258
   0.0073304  -0.9035527  -1.3953234  -0.1139612   0.1501174   0.0148228
  -0.9713393  -0.6348284  -0.8917319  -1.2239563   0.0716653  -0.0042305
   0.4906558   0.1214394  -0.3397661   0.6885254   1.4696475  -0.7098035
   0.7387092  -1.3843098  -0.0044459  -0.0456644  -0.3454518   0.0750432
  -1.4402021  -0.6322269  -0.6480389  -0.1662452  -0.3394257  -1.2201378
  -0.2135229  -0.2951319  -0.0983710   0.4702732   0.6493592  -0.3924217
  -0.3333455   0.1868623  -0.4415375  -0.0376694  -0.1519762   0.0833974
  -0.4500883  -0.4181477   0.4544042  -0.4043156  -0.1811990  -0.2288702
   0.0068500   0.1297464  -0.2199870   0.1060060  -0.0048103   0.8786050
   0.1792108   0.0253902  -0.6405386   0.1690219   0.0937782  -0.2472940
  -0.2505200   1.6968509  -0.0976832   0.1107935  -1.4485021   1.1099423
   0.1959292   0.2360969   0.0041447  -0.1363952   0.2429724  -0.2967136
  -1.2783463  -1.3635365   0.5643805   0.1139517  -0.3532297   0.0606662
  -0.2613456   0.8814554   0.9867814   1.0966946   0.2409768  -1.0635784
  -0.0050439   0.1280803   0.0347271   0.3959986   0.2304323  -0.9457924
   0.1239678  -0.4665453   0.8716318  -0.1152179   0.1438356   0.0131113
   0.2721120  -1.9338020  -0.0167597   0.9332334   0.6390302  -0.5453653
   0.0648585   0.0175082  -0.2099998   0.4014271  -0.3156272   1.0646398
   0.3756137  -1.1474316   1.6704495   0.3668016   0.3984039   0.1979092
  -0.2445702  -0.3481200  -0.7161844  -0.6965208   1.2106899   0.5324578
  -0.0231763   0.0940870  -0.0100098   0.5946149   0.3728578  -0.5897331
  -1.2943149  -0.8144071  -0.0517068  -0.0496426   0.1166625   0.1228080
  -0.3203523   0.4297194   0.3505892   1.4442261   1.4024298  -1.9065953
   0.0241959   0.0194026  -0.0011468  -0.6036958   1.3458388  -0.6625859
  -0.4912436  -1.2786949  -1.2561792   0.0630345  -0.1784946   0.5516800
   0.7536537   0.5402057   1.0604101   0.0698738  -0.5693138   0.7806571
   0.1305305  -0.0188961  -0.0171841   1.1159661  -1.5812405   0.1810508
   0.0933616   1.2571496  -0.0314919   0.1527151  -0.0560940  -0.0169561
  -1.0641551  -0.6661620  -0.4388576   0.3401347  -1.3576792   1.0509074
  -0.0136588   0.0072122  -0.2672784  -0.5915561  -0.9588803   0.9062660
  -1.2278309   0.8554139  -0.6621031  -0.3439431  -0.1151503  -0.1028737
  -0.7481279   0.3230719   0.2223999  -0.7127962   0.3672253  -1.4975282
   0.1466731   0.1874431  -0.2781339   0.5827999  -1.0881155  -0.5924541
  -0.4040417   0.2836444  -0.9328902  -0.2159675  -0.1655783   0.0616896
  -0.3584225  -0.1729628  -1.1274712   2.1476047  -0.2380269  -0.4259064
   0.3933144  -0.0549486  -0.0045720   0.5357224  -0.2625526   0.7203684
   0.1316180  -0.5024342  -0.9035684  -0.0923778  -0.3014058  -0.0108822
  -0.5495007  -0.2553650   2.7315626   0.9718937  -0.4136805  -0.3064402
  -0.1002015  -0.0273360   0.0990415   0.4337308  -0.2307572  -0.4512555
   0.1674309  -0.6399262  -0.2400695   0.5515953  -0.1613463  -0.0420377
  -0.9789658  -0.5280083  -0.2491102   0.3480290  -0.2746085  -0.3820719
  -0.0578418   0.1303033  -0.2853919  -0.2171915   0.2320962  -0.3024849
   0.0198769  -0.0982929   0.5398409  -0.2993298   0.2513268  -0.3538437
   0.0886402   1.0345681   0.3036086   1.4931582   0.6052153  -0.4790976
  -0.0051162  -0.1205410   0.1047071   0.1652192  -0.9048448   0.0028087
   0.6767880  -0.4341519  -0.4746928   0.0137963   0.0154766  -0.1441089
  -0.3132233  -0.2055421  -0.1087131  -0.1452987   1.1248702  -0.5654689
   0.0476105  -0.3385037   0.1644590  -0.3124142  -0.2307232   1.3180288
  -0.5500968  -0.5176291  -1.5369470  -0.2947720  -0.3191228   0.3370397
  -0.1389530   0.1276874  -0.8099444  -0.5780323   1.0158268   0.7221942
  -0.1808166   0.2642111   0.4504100  -1.3512126   0.8895264  -0.2013244
   1.5841078  -1.1888082  -1.7759413   0.0839779  -0.1817243   0.1694338
  -0.3673640  -1.8434324   0.6585867  -0.9656664   1.1680708   0.4505865
  -0.0000772  -0.2421858  -0.2112067   1.2351756   0.0452545   0.1202654
   0.0725058  -0.1480921  -1.2404320  -0.0025684   0.1812998   0.0105281
  -0.5602368   1.7004000  -0.2761360  -1.8144354   1.3509071  -0.5309867
  -0.1717345   0.2272072   0.0355498  -0.6065424  -0.1400814   0.4054281
   0.0308042   0.6767650  -1.1404892   0.2621509  -0.1352044   0.0059839
  -0.3886885  -0.5099555   0.6411636   1.0028077  -1.1832974   0.1767645
   0.0634409  -0.0503103   0.2236560  -0.1884167   0.6672187  -0.7465978
   1.0007821  -1.1794568   0.5548401  -0.0401328  -0.2001621  -0.0503572
  -1.3864627  -0.0010317  -1.2229148  -1.3127326   1.9497393  -0.1165292
  -0.1712346  -0.0080907  -0.1938110  -1.7052813  -0.8236248   0.6284844
  -0.8972890  -0.0429802   0.4490944  -0.3041061   0.0205610  -0.0726931
   0.0991512  -0.4983509   0.9423753  -0.1574596  -0.4613078   0.6532925
   0.4506173  -0.1925125   0.0764861  -0.3742012  -1.5384634  -0.6641787
   1.6260928  -0.0939604  -0.4845380   0.0161253  -0.1449009  -0.4914196
  -0.1468006   0.6801618  -0.2945463  -0.4657167   0.1092292   0.3095590
   0.2461196  -0.0446998  -0.1854084  -1.1446536  -0.0093462  -0.1348197
  -0.4918862   0.5564204  -0.2743968  -0.1346735   0.4697007   0.0906092
  -0.2929625   0.2989921   0.6117688   0.9539595   1.5158942   0.9575801
  -0.0692551   0.2384152   0.0224736   1.4012538  -0.2593224  -0.3540256
  -0.6339616   0.4990800  -0.5681721   0.2259396  -0.2300560   0.0626295
  -0.6965595   0.5668288   0.8335239   0.1704478   0.6772100  -0.2424300
  -0.1350934   0.0623388   0.0924606   0.3934421  -0.3747960   0.9278163
  -0.2601728   0.5476313   0.5966552  -0.1299690   0.0498715  -0.1749758
   0.9441021  -0.0947442  -0.1280607  -0.0165072  -0.5182823   0.8052520
   0.3174534   0.0319613   0.3256027  -0.3103714  -0.0634773  -1.1808661
  -0.8196970   0.9588510  -1.4824024  -0.1130697  -0.1922041  -0.0680549
   0.2735663  -0.2626569  -0.7236623  -0.2354375   0.7335451  -0.7459633
  -0.3316236   0.0600891   0.1318852   0.7150440  -0.5708930   1.2382096
   0.5742508   0.0542437   0.1719475  -0.2610668   0.2613488  -0.0857381
   1.8587868  -0.6007326   0.3478555   0.0125857   0.7836133   0.0128762
   0.1150301   0.1639451   0.2738218   0.4597706  -0.8874323  -0.0585705
  -0.1994360   0.5911271  -0.2982138   0.0590613  -0.1616089  -0.1360009
   1.0185621  -0.5779250   1.9754161   1.2764183  -0.7774937  -0.0178143
  -0.1100592   0.3017000   0.1001504  -1.5381695  -0.1096807  -1.0669020
   0.1423838   0.2770240   0.2204748   0.1864326  -0.2022825   0.5342786
   0.4249818   0.1547645   0.4468937  -1.0870461  -0.9376315   0.1573622
   0.0720650   0.0815189   0.1405518  -1.3729529   0.9824870   1.0311325
   0.2474687  -0.6328605   0.8429809  -0.1652387  -0.0035989  -0.2830188
   0.0631983  -0.8669844  -0.8285739   0.4633312   0.1634956  -1.5609434
   0.2206855   0.1574633   0.2217149   0.4219511  -0.4856651   0.9735252
   0.7329253   0.0860623   0.5422890  -0.3358985  -0.2926483   0.0830919
   0.2555226  -0.2644416  -0.6984612   0.4400055  -0.3716438  -1.3261513
   0.0778069   0.2426155  -0.2085924   1.6023976   0.6354899   0.5158250
  -1.3923411  -1.4618615  -1.0791683   0.0078856  -0.4403957   0.2229807
  -1.6789838   0.3985867  -1.2674121  -0.8197249   0.7194005   0.7596002
  -0.2621917  -0.2080290  -0.0721796  -0.2015276   0.3311938  -0.6905387
   0.3226381  -0.1364315  -0.1213327   0.0622798   0.1118413   0.0887113
   0.1223868  -1.1599112   0.7190114   0.6324758   1.1241466   1.2246461
  -0.3488741  -0.1632750  -0.2185948  -0.5662500   0.2592341   0.7645364
  -0.4591151  -0.2313778   0.3908506  -0.3019082  -0.2564740  -0.0955769
   1.5058668  -0.1785472   0.6287248   0.4612859  -0.4170756  -1.8389779
   0.1278462   0.1088325  -0.0772640  -0.4396176   0.8259982  -0.9395571
   0.0335258  -0.6530902  -1.6540953   0.1343672   0.0862123  -0.1341919
  -0.3611473   1.5656878   0.0134359   0.1793039  -0.4093087   1.6215441
   0.0418352  -0.2264893  -0.2225983   0.4511247  -0.0613186   0.6326680
  -0.2474502   0.5326664  -0.1067590   0.0037188   0.3410172   0.1949032
   1.5313120   0.1129093   0.7075248  -0.0703340   0.2682702   0.8014778
   0.3349550  -0.0866615  -0.1132200  -0.7633359   0.4285602   0.0880916
   1.0137734   0.5679582   1.5144938  -0.3763103  -0.0777248   0.1711638
   0.6372582  -1.6417986   1.5483209  -0.2851292   0.5088312   0.3607927
   0.3388198  -0.3015788   0.0364460   0.2724052   1.1884146  -0.1888042
  -0.0896707   0.4060690   1.2029217  -0.0921434  -0.2476550   0.0882234
  -0.8909960   0.1331164   0.4537350   0.0172908   0.6031164  -0.5925083
   0.1304462   0.2532693  -0.3166013   0.3810949   0.5290783  -0.3613334
   0.8652006   0.3157503   0.8353514   0.2550429   0.1668513   0.1265875
   0.2196552  -0.7930145  -0.3886030   0.2899318  -0.1025722   0.3130768
  -0.0025342   0.0425032   0.2868362  -0.0076885  -1.0301950   1.2161701
  -0.2304382   0.4726772  -0.5198926  -0.6748776  -0.1652075  -0.0572545
   0.2942965  -0.8954060  -0.7391368   0.1703541   0.2614618   0.4042476
   0.1987929  -0.3190247   0.0052802  -0.3365917  -0.2463589  -0.0724292
  -0.9267773  -0.2627392  -0.0489677   0.2086180  -0.2794482   0.0616339
   1.6531868  -0.9838142  -0.0207193  -0.7663878   0.0196800   0.8641675
   0.0696885   0.1629491  -0.1810012   0.7847742  -0.8014342   0.2309627
  -1.3902669   0.6225884  -0.1256315  -0.0816191   0.1056937  -0.1505253
   0.9513841   0.2394754   1.6353400  -0.0229414  -1.5340588  -0.1672707
  -0.1689279   0.0214417   0.0133792  -0.8064753   0.3574337  -0.0544840
   0.1719143   0.3522676   0.0550930  -0.2088670  -0.0050088   0.0253589
  -0.2184966  -0.7925439  -0.0373843   0.3094623  -0.6837275   0.1531318
  -0.0138747  -0.1147948   0.3811851  -0.9742379   0.1633308  -0.1116633
   1.2349867  -0.8480397   1.3049188   0.1858885  -0.0293731   0.0401739
   0.0728823   0.4067649   1.0197484  -0.7932460  -1.1089516   0.0660993
   0.0315572  -0.1329046  -0.0918286  -1.1804292   1.3363713  -1.0930313
  -0.2915725   0.6362294   0.6304528  -0.1692208   0.2803937  -0.1290585
   0.2543579   0.8795775   0.3570400   0.7441770   0.0195086  -1.2037505
   0.2974114   0.2638334  -0.2431282  -1.4256256   0.2609949  -0.5454828
   1.1551375  -0.7148079   0.9681434  -0.1468971  -0.2228017  -0.1712604
  -1.6025500   0.4873955   0.8857793   0.9494677   0.6726513  -2.2123661
  -0.3110478  -0.1762503  -0.1365922   0.0824572  -0.4768900   0.4253638
  -0.4595232  -1.2093126  -1.1909291  -0.0328651   0.2920128  -0.2565248
   1.3204604   0.2229812   0.1160400  -0.8736002   1.0409931  -0.4769044
  -0.0794325  -0.2033345   0.4575486  -0.2469026   1.4998302  -0.7370296
   0.0964803  -0.3071609   0.0624073  -0.0294678   0.2191012   0.2084921
  -0.1390001  -0.2466327   0.7776895  -0.4019614   0.4619899   1.4907210
   0.0541295  -0.2458008   0.2696547   0.4331961   1.0037215  -0.1561360
   1.5728077   1.1473629   0.7247132  -0.0418978  -0.1181777   0.0075520
  -1.4323483  -0.1103717   0.5997652   0.4631021  -0.6919063   0.6299814
  -0.1320765  -0.0129760   0.1691758  -0.5770302  -1.4049239   0.0781530
   1.1262703   0.4256683   0.7601923   0.1997705  -0.2418581   0.3517832
  -0.6639283   0.8334691   0.0864378  -0.0725291  -0.4625993   0.8516194
   0.2969564  -0.0137657  -0.4163681  -1.0696942   0.7604677  -0.0942440
   0.5241324   0.5221119  -0.3126803   0.4507948   0.2061336  -0.1673643
  -0.5584270   1.5036676   0.1631462   1.2428371   0.5253029   0.0533588
  -0.0706253   0.1606125   0.0404988   0.7836266  -0.2112830  -0.5431452
  -0.7164392   1.5488157   0.0511101  -0.1274829   0.1452756   0.0191323
   0.1571729   1.2414891   1.6109599   0.1251601   0.4107727  -1.4836590
   0.0287301  -0.2462537  -0.1975170   0.6189667  -0.8087605   0.2843647
   1.0970950   0.1323697  -0.3223403   0.2638457  -0.1550772  -0.0325194
   0.6375709  -0.5774321  -1.4147555  -0.5599602   1.1641217   1.2978740
  -0.2367213  -0.1799061   0.0942091   1.1553096   1.5338447  -1.3192456
   0.3577474  -0.2828211   0.1097752  -0.1014917   0.1821596  -0.2100743
   0.1161043  -0.3015047  -0.7923306   0.4561630  -0.6903591   0.0310497
   0.1636536   0.2319991   0.0016910   0.1288593  -0.4852110  -1.2640111
   0.4779011  -0.3837364   0.5396013   0.2282782  -0.0274345   0.0044469
   1.9045061   0.9342470  -1.2614738   0.7302339  -0.0642163  -0.8867456
  -0.0702040  -0.0071490   0.0735173  -0.7115643   0.3839265  -0.5078769
  -1.5422964  -0.3756785  -1.1400187   0.0127661   0.0491884  -0.3996904
   0.3409485  -0.0925965   1.4945480  -0.5892122   0.0520697   0.6594494
  -0.0814448  -0.1377627   0.0862381   0.0245121  -0.2960583  -0.1066327
  -0.0812525  -0.0841526   0.2524337   0.2355816  -0.0368135   0.2565780
  -0.9442128  -0.3455350   0.0644202  -0.4728878   0.7218405   0.3427638
   0.4491421  -0.2146367  -0.1862366  -0.1633876  -0.0138001  -0.4667910
  -1.6060393   0.5204096  -0.8074822  -0.0371335  -0.3500728  -0.1353243
  -0.2257475  -0.9991143   0.2265771   0.2570895  -0.4707671   0.4408472
   0.5023100  -0.3842300   0.0787753   0.4791564   0.4937102  -1.7361555
   1.3773292  -1.4145756  -0.1374900  -0.0651095   0.3575276   0.0662646
  -0.8568882   0.1929383  -0.0814913  -0.0487889  -1.1059971  -0.0549952
   0.0564416   0.2135065   0.1062424   1.0406377  -0.1354694  -0.5090494
  -0.0624415   0.9254991   0.0422850   0.1789246  -0.2241500  -0.1400288
   1.4935209  -0.5509285  -0.0379626   0.8132003  -1.8538083  -1.0051020
  -0.0881871  -0.2758540  -0.0201264   0.6604655  -0.1708501   0.2531325
  -0.4363452   0.2221628   0.7894676  -0.2033806   0.1409689  -0.0140333
  -0.1781472  -1.2084310  -0.3455439   0.8786316  -0.1951428   0.6255774
  -0.1483577   0.3345391   0.0705851  -0.7301828   0.8158504  -0.8182347
   0.2446236   0.9375578   0.1875078  -0.0536068  -0.3379421  -0.2661987
  -1.5445797  -1.1671560  -0.8117507  -0.2834460  -0.4560445   0.3012359
   0.0074791  -0.2681328   0.0730655  -0.6098751   1.0136237  -0.1320782
   1.0534431   1.0330981  -0.3982436   0.1998931   0.1003197   0.0571680
   0.7642817   0.7297933  -0.2613261  -1.9336855  -0.3550835   0.0840909
   0.0423302   0.1731758  -0.0529487  -0.1833831  -0.0012175   0.4109302
  -0.9178979  -0.9271587   0.4777814  -0.1907335   0.1734190   0.0347182
  -0.3494352  -0.6758456   0.3461825  -0.3371736   1.1673566  -0.4527421
  -0.5658671  -0.0628872  -0.0262680   1.0078951  -1.0632931  -1.8734250
   1.0989473   1.3965183   0.0973432   0.3872598  -0.3415506  -0.1825388
  -0.5874130   2.1955311  -1.4712598  -0.4937931   0.9613904   0.7737061
  -0.0390601  -0.0243750   0.3183000  -0.1064223   0.1451583   0.2636440
   0.7187175  -0.3353958  -0.4929132   0.0978904   0.0444853  -0.1769544
  -0.3679796   0.1040600   1.3172706   1.3591080  -0.1761531   0.4767125
  -0.0518709  -0.1507519  -0.1063014   0.7027817  -1.1321517   0.1292167
   0.4284986   0.2590775  -0.3195699  -0.4349421  -0.0089214  -0.3159653
  -0.3936231  -0.1611039   0.5476397  -0.0235313   0.5633189  -0.4474726
  -0.0752023  -0.0611274   0.1570844  -0.5574895  -0.0347264   0.2564822
   0.4818706   0.0703870  -0.4921233  -0.1523775   0.3368069   0.1559109
   0.9356765   0.4976110  -0.0363311   0.7898943   1.0847238  -0.1058072
   0.1109588   0.1451259  -0.1655577  -0.6672751  -0.3247818   0.1405609
  -0.4751394  -0.3877970  -0.4286916   0.0575319   0.2859140   0.1624859
   0.2893545   1.5582802   0.3618717  -0.2110976  -0.4685073  -0.2352735
  -0.0218067   0.0996630   0.1305083  -0.7516797   0.3140647   1.6204193
   0.7172375  -0.3371109  -1.4280781   0.0160689  -0.0390902   0.3926686
   0.8181345  -0.5720499   1.5978676  -0.5182505   0.6619073   0.1037088
   0.1154707  -0.0767010   0.3942499   0.0179151  -1.1555645  -0.3326193
   0.1435003  -1.1942185  -0.1925046  -0.0468058  -0.0359648   0.0102730
  -0.6581884   0.6144333   0.3986858   0.8935979   0.9640861   1.3592433
   0.0368209   0.0505341   0.2368688   0.1538821   0.6959159   0.0045361
  -1.5890626   0.1771482  -1.0430391  -0.2832238   0.0616058  -0.3492540
  -1.0006304  -0.0702980  -0.6894773   0.1394681   1.8825514   0.4355674
  -0.2740140   0.0812576   0.0776842  -0.9261504  -1.4768949  -0.3563266
  -0.6428481   0.4562443  -0.8686047  -0.1913027   0.0798800  -0.0869090
   0.6796285  -0.4533524   1.4942242  -0.4670185   0.0559580  -0.2381894
  -0.3580723   0.5056005   0.3358986  -1.8400563   0.0737874   0.2592769
   0.6824222   0.1977709  -0.6733820   0.0598331  -0.0493912   0.2846500
  -2.0364523  -0.0794189  -0.0098932  -1.9790281  -0.3708479  -0.2375659
  -0.2215534  -0.1880054  -0.0844207  -0.8935018  -0.8278626  -0.0843400
   0.7418283  -1.2062945   0.3662537  -0.3330651   0.2418092   0.0374177
   1.1008664  -1.3074449   0.4293616   0.1014624  -0.0906067   0.5760477
   0.1648731   0.1209748  -0.0785133   0.1984729   0.1668871  -0.1620799
  -0.8865895  -0.0384833  -0.2316610   0.0197831   0.3241652  -0.2077563
   1.1390523   0.2516996   0.6606612   0.7706883   0.5906824  -0.2558093
   0.1669854  -0.1262160   0.0068719   0.3278331   0.2315559   0.4960659
  -0.0345602  -1.2446697   0.4862693  -0.0302494  -0.2586720  -0.0827444
   1.5989268   0.0041327   1.0409124   0.7535277  -1.1403947  -0.3332475
   0.0870608  -0.1546898  -0.4978267   1.0972995   0.5571497   0.6662377
  -0.6155777   0.3043705   1.4614358   0.1056077   0.3062558  -0.2114145
   0.0751979  -0.7688575   0.4473525   1.2875056  -0.7537125  -1.1044422
  -0.0525868  -0.1444595   0.1142222   1.2705288  -0.6375818  -0.7054498
   0.7914296  -0.0436696  -0.5954875   0.2948924  -0.0971287  -0.0318307
   0.5409921  -0.0572066  -0.0570226  -1.0344565   0.2598180  -0.4220908
   0.2894422  -0.1536970   0.0905765  -0.4298528   0.1532407   0.3635204
  -1.0498453  -0.3727978  -0.2748871  -0.1443901  -0.0109884  -0.1997892
   0.5789093  -0.5038194   0.0703663   1.1744363  -0.7454426  -0.4559467
   0.0044989  -0.1144431  -0.4090713  -0.0265100   0.4954164   0.0941477
   0.9640134  -0.4694222   1.3231319  -0.3563970   0.0466813  -0.0819565
   0.4895931   0.8459725   0.4195233   0.1666558   0.1473302  -0.2622463
  -0.0686921   0.0998605  -0.3947898  -0.4413554  -1.9696721   0.3148659
   0.4265401  -0.1157096  -0.0486372   0.1899886   0.1385576  -0.2454549
  -0.1620405  -0.2844113  -0.6281760  -0.4181724  -0.7830549  -1.4649683
  -0.0293441  -0.0356531  -0.6080866  -0.4940722  -0.5413917   0.5154859
  -0.6209545   1.0130779   1.8350065  -0.2816900  -0.4145913  -0.0136868
   0.4776432  -0.8609778   1.0144562   1.3955004  -0.1406849   1.5176392
  -0.0914596  -0.2797436  -0.1151427  -1.3048265   1.2290267  -0.0892983
   0.3276475  -0.5259472   1.5918838  -0.0442093   0.1414284  -0.0584319
   1.1274101  -0.9675410  -1.8126310  -0.7182003   0.2353348  -0.1716562
   0.2662572  -0.0993545  -0.0685347  -0.1246502   0.2703469   0.8535040
  -0.2977594   2.0901482   0.6054997  -0.1369517   0.3824866  -0.1918721
   0.7146801   0.7470633   0.2049076  -0.2455894  -0.3106473   0.9038655
   0.1962049   0.1405868  -0.0969523  -1.0211843   0.3333414   1.6150713
   0.0011356   0.8861389  -1.1592751   0.1819957   0.3947508  -0.0747418
  -1.6429969  -0.6959883   0.3046201  -0.0077019  -1.0469604  -0.3846813
   0.1580063  -0.0470826  -0.0046309  -1.0851418   0.6621389  -0.8025108
  -0.0148013   0.1165292  -0.5028452  -0.0213328  -0.0035012   0.1864137
   0.4848840  -1.1823771  -0.8271633  -0.0448477  -0.4077401   0.0966116
  -0.1634461   0.0990977   0.1904401   0.0736450  -0.0989457   1.9336817
  -0.3791126   0.3423847   0.0173009  -0.2312268   0.2043461  -0.0340465
  -0.4888477  -1.0175587   0.5872297  -0.8963479  -0.2533994   1.1648790
  -0.1218986  -0.1748193   0.1928885   0.5524325  -0.9889994   1.3706867
  -0.2125163  -0.4875007   1.0633529  -0.1418335  -0.0810514   0.1329252
  -0.4322385  -1.2662659   0.7336352  -0.3558940   0.6524236  -0.4320169
  -0.3389927   0.4010430   0.1379304  -0.4589224   0.7740715  -0.9472796
   1.0046567   0.1371916  -0.3240412  -0.1793461   0.1870336  -0.0637255
   0.7670281  -0.3931955   0.0529168  -0.1238550   0.7344773  -1.5254691
   0.3201528   0.1616683  -0.2584067   0.7568768  -0.0614863   0.7090909
  -0.4704756   1.1412828  -0.4899428  -0.0360657   0.0955087   0.1969914
  -1.7190630  -1.1581105  -0.3206622   0.0985780  -1.3515923  -0.0035375
  -0.1091641  -0.0740175   0.0522673   0.5066167  -0.4220368   0.8867388
   0.0737682   0.1961779  -0.3122483  -0.0446237   0.3143465  -0.0231514
  -0.6842473  -0.3197466   0.8344758  -1.3893217   0.0318487  -1.3099046
   0.1412492  -0.1573068  -0.1261162  -1.2991269  -1.0325117   0.5495232
   0.1779856   1.2382936  -1.3638937  -0.0194803   0.1809679   0.0334166
  -0.2775694   0.3429244  -0.2469413   1.3538033  -0.1015464   0.7072077
  -0.2259568  -0.2734983   0.0389983  -0.2151109   0.3613939  -0.7815927
  -1.2982596   1.6726890   1.4497442  -0.0386417   0.2210690  -0.0904686
   0.0378111   0.7081241  -0.7326875   0.2796976  -0.7333660   1.3455921
  -0.1641162  -0.0496627  -0.1317491   0.7814024   1.1794803   0.4072031
  -0.9620908   0.6259077  -0.5658560  -0.0369909   0.1012131   0.0442173
  -0.3376663   0.2882658   0.8293311  -1.0663749   0.4715199   0.9211491
  -0.1196588  -0.2699106   0.1143135  -0.3077466  -1.4556897  -0.1601064
   0.3595370  -1.1337987   0.0924930  -0.2650735   0.1420941   0.0596994
   1.0525494  -1.3486944  -0.3483485   1.2703115   0.6251370  -0.2251325
   0.3150631  -0.2888574   0.1056142   1.3740151   0.5044237  -0.4252657
  -0.9177774   0.3101238  -0.4926071   0.0192744   0.2964943  -0.0675979
  -0.9856368   1.8943013   0.5052846   0.5363361  -0.4477288  -0.7525826
   0.2222878   0.0577533   0.1532360  -0.7263603   0.2200197  -0.4860403
   0.3848694  -0.5225700  -0.8045077   0.1886181  -0.0983644  -0.5107738
   0.1115735   1.3815913   0.8481802  -1.8211987  -0.5403129   0.0565387
  -0.1375295  -0.2810403  -0.3054832   0.6021464  -0.0466632   1.0772252
  -1.1500778  -1.9144293  -1.2281202  -0.0018225   0.0279390  -0.1837537
   0.1554316  -0.3192500  -1.1081765  -0.8856759   0.6652164   0.9007646
  -0.1225206   0.0080223   0.1521243   1.3962898  -0.8738319   0.2184836
   0.3938308  -0.5692421   0.3834679  -0.2841646  -0.2149939  -0.3480456
  -0.3075415  -0.9861684   0.4321883   1.3349637  -0.3344862   0.2986479
   0.0611658  -0.2594496   0.2697026   0.5261313  -0.1434723   0.6192822
  -0.1477780   1.0885440  -0.5052391   0.1764764  -0.1893940   0.3081271
   0.4432424  -1.3017496   0.0602919   0.4609586  -0.0369400   0.8134721
  -0.1868557  -0.0338912   0.0833739  -0.7757615  -0.7519406  -0.4024450
   0.7638180  -0.7450782   0.3357954   0.3486173   0.1007797  -0.0557914
   0.3975804  -0.0238654  -0.4710303   0.1859297   0.0033271  -0.5381089
   0.1634917  -0.2789423  -0.0926153  -0.5016471   0.0244651  -1.4905936
  -0.6657204   0.7751120   0.2795889   0.1182007  -0.0780653   0.4257421
  -0.5294225  -0.0675124   0.5940045  -0.8292300  -0.2886015   0.2940028
   0.1285085  -0.0718318  -0.2378294   1.1300792  -0.3225762   0.0786684
   0.6462237   0.1770865   0.1490644  -0.2437661  -0.2932075   0.1708911
  -0.2852214   1.1174055  -1.4624648  -0.2767764   0.5518915   0.0906741
  -0.0594056  -0.1140881  -0.2701237  -0.9667042   1.4381309   0.0997040
  -0.0814816  -1.0599625  -0.1128285  -0.1024753   0.1290008   0.0384079
  -0.0535802  -0.7428525  -0.1061490   0.5393944  -0.4032036   0.1656637
   0.1408761  -0.0058072   0.1823743   0.1809418   0.9207969  -0.5246881
   0.0670790  -0.5185218   0.6597523  -0.0468994   0.1445236  -0.0710767
   0.1278227  -0.0105676  -0.6832249   1.7444158  -0.2615197  -0.3427475
  -0.0616366   0.0202222  -0.1778256  -1.4673994  -0.2396044  -1.6782850
  -0.2044233   0.8648609  -0.9581598   0.2769297   0.3928168   0.4425601
  -1.4375473  -0.7446802  -0.8018766   0.8687336  -1.8048332   0.6149328
   0.1401513   0.2208015   0.0963036  -1.2126254   0.8312927  -0.1531547
  -0.1028034  -1.0747737   0.3139460  -0.1420014   0.3623004  -0.1337922
  -0.6564825   0.2139015   0.6172476  -1.3305560  -0.7376168   0.2711460
   0.1725103   0.0399339   0.0502887   0.4294035   0.2124676   0.2318742
   0.7399020   0.4678051   0.1961864   0.0908149   0.0742162   0.2550493
  -1.1268811  -0.3905841   1.2310600   1.2831181  -1.4917440   0.3967353
   0.1200828  -0.1774739  -0.3497045   1.6183739   1.1913453   1.1279469
   1.1060848  -0.9615560  -0.0776325   0.0046579  -0.1203891  -0.0356569
  -0.3246990   0.9251329   0.8032499   1.0935014  -0.0183200   0.0573509
  -0.0467619   0.1760753   0.0251291  -0.7581695   0.3203194  -0.6004358
  -0.4619766   0.4980243   0.2939803   0.1398055  -0.1834790   0.0147926
   1.1079152   1.2291716   0.5259194   0.9098691  -1.1912496   0.7905895
   0.3711783   0.2810338   0.0434176   0.1897999  -0.3495403  -0.3888616
   0.3417290  -1.1383891  -0.3764749   0.1069586  -0.0253308  -0.2100003
  -0.8372651  -0.0016766  -0.8113176  -0.1046771  -1.9094219  -0.4436921
   0.2537826  -0.0241993   0.2791331   0.5965081   0.7596085   0.0941355
   0.7433046   1.8141494   1.2399397  -0.1747970   0.1680457  -0.0797874
  -0.0905078  -0.6392506  -0.5119527   1.1433644  -0.0927844   0.3678413
  -0.1176823  -0.1215672  -0.1446970   1.5481936   1.1434568   0.8762255
   0.3769247   0.3583791   0.4328703  -0.3937006   0.0541211  -0.0098208
  -1.2614611  -1.4484998   0.9554597   0.0433649   0.2796634   0.8082424
   0.1897612   0.0300644   0.1341534   0.0469766   0.0029045  -1.0106170
  -0.6037913  -2.1335709   0.6466630   0.0818399   0.1090019   0.2625855
   0.0946485   1.0480311  -1.5614074   0.5909493  -0.0434213  -0.4019790
  -0.0406790   0.1368640   0.2199424  -0.8789511   0.5115968   2.0688751
   0.4692703  -1.6020213   0.4243815  -0.2445283  -0.1748516   0.1217751
  -0.5609196   0.2878414  -0.0216146   1.7389358  -1.2761558   0.3261571
  -0.2413000   0.1647915   0.1490507   0.6037710  -0.5321791   0.1784101
   0.7868273  -0.8670015  -0.7888085  -0.0892065  -0.0385220   0.0936904
  -0.9679109   2.4291825   0.6122340   0.0472628  -0.9023499  -0.1703375
   0.0336898   0.0169473  -0.3047507  -0.3465000   0.0868451  -0.5822054
   0.2492507   0.1308243  -0.0702086  -0.0738652  -0.2382351   0.1806478
   0.7142875  -0.4616546   0.2564637  -0.7246525  -0.9145641  -0.5062851
  -0.1197463   0.0312213  -0.2544695   0.2628973   0.4755540   0.8282287
   0.4656202  -1.0989449   1.1775819  -0.0373947   0.0800160  -0.3049741
   1.4609566  -0.0430352  -0.1921657   0.0384625  -0.2233993   0.4599812
   0.0887242   0.0576842  -0.1938007  -0.6640077   0.2397635  -0.2035588
  -0.9679887   0.0792524  -0.5787215   0.1489926   0.0005976  -0.3071617
   0.2946289   0.2316577   0.2170829  -0.2530360   0.5266789  -0.3877487
   0.1395386  -0.0005071  -0.0170986  -1.3016180   0.9970760   1.0100071
   0.0735843   0.5352787   0.0960407   0.2939164  -0.1106531  -0.0921102
   1.6503181   0.2139933   1.2179360  -0.2707424   0.4353576  -0.6667495
   0.1398536  -0.2215842   0.0389694  -0.2107389  -0.3719363   0.8696782
  -0.3583279   0.2117175  -1.1775764  -0.0210689   0.0525626   0.2706223
  -0.7116805  -0.4081607  -0.6140972   0.2457379   0.1371942   0.0957581
  -0.0190260  -0.3598019  -0.0988864  -0.0013941   0.3074009   0.0469298
   0.2689601   2.6360762   0.0908563  -0.0547815   0.1141175  -0.0948685
  -0.9765245  -0.6788830  -0.7586767  -1.0259480   0.4045225   0.1980085
  -0.2420114  -0.2211881  -0.2937478  -0.9865065  -0.0356571   1.1048976
  -0.3750983   0.1581968   0.0961442   0.0402437   0.0587940   0.0003256
  -0.8535794  -0.7037266  -0.2384268  -1.8588334   0.6304974  -0.3191940
   0.0327253   0.0617975  -0.1234065   1.3143220  -0.2645662  -0.7134591
   0.2244096   0.3626319   0.0755479   0.0846168  -0.0845103  -0.0560757
   0.8432388  -0.7490515   1.1889405  -1.3079602  -0.5129097   1.6814448
   0.2601088   0.3126547   0.4030653   0.0693645   0.3952844  -0.4526826
   0.4520965  -0.4745966   0.8667274  -0.0543612   0.2983346   0.1236904
  -1.0446393   0.5841970  -0.0766747   0.3669303   0.0528575  -1.1556414
  -0.3582428   0.2523438   0.1575535   0.1365324  -0.2701075  -1.1405351
  -0.3771026   0.2687735  -0.5886891   0.2787576   0.0115159   0.0280434
  -0.7337078   0.0080248   0.2416883  -0.4635563   0.4286370  -0.8936116
   0.1435156   0.1213784   0.1359640  -0.2877474  -1.1157197   1.6058391
  -0.4056322   0.1427158  -0.1835606  -0.1601645   0.0767086  -0.0942063
  -0.5823321  -0.3347332  -1.2739505   1.9505200  -1.1311241   1.6236113
  -0.1773980  -0.0891852  -0.2487239  -0.2029492   1.2514313   2.2897868
   0.1854552  -0.8819317  -0.8459803   0.0169084   0.1010798  -0.1240079
   0.4651068  -0.1897015   0.7926996  -1.1685485  -0.7427684  -0.7975159
   0.1360979  -0.1512035   0.2267446   0.1946743  -1.0321118   0.0817344
  -0.0674966   0.9853454   0.4690790   0.1871894   0.0570805  -0.1185221
   1.0725067   0.0932899  -0.8493849  -0.8958699  -0.8997723   0.6557450
  -0.1912161   0.2851315  -0.1458430  -0.0222198   0.2306256   0.1329194
   1.0025519   0.5805123   0.9731472  -0.1532408   0.0373781  -0.3320614
   0.5230398   1.1839638  -1.2477582   0.3479259   0.2538429  -0.8986213
  -0.0055886   0.2370599  -0.1027206  -0.4696508   1.0261372  -0.7528638
   0.2280886   2.0029519   0.3601822   0.2184005  -0.1059719  -0.0636309
   0.5665439   0.2119063   0.0230765   0.4005497  -0.4572291   0.4387025
  -0.5205804   0.0354895   0.2016826   0.4812856  -0.1737796  -0.8086559
  -0.3045661  -0.7691033  -0.7734051   0.0233725  -0.1820608  -0.0181582
   0.3538961   0.7693792  -1.3157892  -0.2660255  -1.8535316   1.5442426
  -0.0141714   0.2038091  -0.1867547  -0.3868015   0.1050062   0.5906557
   0.0219288   0.0570408  -1.5384210  -0.2426518   0.0596563   0.0526009
  -0.5072907  -0.6579985   1.2172668   0.2983266   1.2200327  -0.5774195
  -0.1694784  -0.0408076  -0.3704248   0.7186137  -0.2341785  -1.1773086
  -1.4827467   0.1361234   0.0513944   0.0500939   0.3264895   0.0384797
  -0.9681256  -1.3276848   0.0582049   1.5220529   0.0210184  -0.1513981
   0.1514936  -0.1073264   0.1279571   1.1806884   1.4587853  -1.6998816
   0.0546393   1.2559806  -0.2738675  -0.3150174  -0.0309064  -0.0716793
  -1.1908989   0.2427731  -0.4893352   0.0736907   0.1310776  -0.2635806
   0.0504627  -0.2637922   0.1497617  -1.0569475  -1.1595527   0.0518303
   0.8807383   1.1464510  -1.8405671  -0.0462578  -0.0627675   0.1797588
  -0.1392607   0.5926812   0.3931512   0.3749477  -0.6943005   1.4178815
   0.0305643   0.2160454   0.3714369   0.1112863  -0.4703971  -0.0075671
  -0.0610592   0.9301500  -0.5153603  -0.1397596   0.0062820  -0.2621523
   0.5285038  -0.0939186   0.0676505  -0.6473775  -0.9169064  -0.0595099
  -0.1700222   0.1340356   0.1366498  -0.3822315   0.6042742   1.1980143
  -0.2949570  -1.4014832  -1.2126305   0.1588284  -0.0864707   0.0325221
  -0.1093465  -0.0633000   0.2907321   0.4404162   1.0059624  -1.4263759
   0.1307294  -0.1153188   0.1136388   1.4044976  -0.4436284  -2.0815401
  -0.3082793  -0.0722323   0.0008550  -0.0786986   0.2869623  -0.3448637
   0.2651540  -0.5811228  -0.9744775   0.5565735  -0.2130993   0.5751843
   0.0860014  -0.1364264   0.0610156   0.1010942  -1.0947009  -0.0278358
   0.3123852  -0.0707667  -1.9081900  -0.1573829  -0.2337467   0.1733419
  -1.7544620   0.5938884  -0.3360498  -0.4159217   0.4470677  -1.5819869
  -0.0094934   0.2016839  -0.2680787   0.4303978  -0.6822963   0.7028518
  -0.4206852   0.6987327  -0.4183173   0.2098436   0.1572303  -0.1756260
   0.6174354   1.1264088  -0.7179064  -0.6775263   0.0228129  -0.0809662
  -0.1072449  -0.1295864  -0.0073045  -1.2783496  -1.1176369  -1.0403765
   0.3383490  -0.3641305   0.8791784   0.1132031   0.0946432  -0.0415797
   0.7768955  -0.9113657   0.9014633  -0.1219697  -0.3651548   0.3229637
  -0.1178191  -0.2731019  -0.0811513   1.8474941   0.3450964   0.4993321
  -0.5039740  -1.1454424   1.2285062   0.0785383   0.0569848   0.0134731
  -0.4040378  -1.1145238   0.3456147   0.9392986  -0.8820625  -0.4604864
   0.1587843   0.2489989   0.1686895   0.4048454   0.5416153   0.4778225
   0.4421727  -1.8456695  -0.2081559  -0.1158427  -0.3808711   0.3078575
   1.4608705   1.7619156  -0.5471880   0.2257168  -1.0814153  -0.8239502
   0.3270492   0.1637763  -0.1935843  -0.2275965   0.4995306  -0.7441441
  -0.0441440  -0.3256826   0.8463988  -0.3336568  -0.1958608   0.3048202
   0.2644918   0.9240551   0.4152558  -0.9586380  -0.0044035  -0.2624897
   0.1101077   0.0165517  -0.2415701   0.0944133  -0.1042066  -1.2054635
   0.8290564   1.0336758   0.5442035   0.2443031  -0.0441542   0.2067825
   0.1898080   1.4709703  -0.5282749   0.7364017   0.2433941  -1.0268035
   0.0475576   0.2082672  -0.2748439   0.6655797   1.6782593  -0.2234339
   1.6130198   0.6580227  -0.7487743  -0.2025415   0.0246149   0.0036304
  -0.4319655   0.8071856  -0.7899768   0.6433943   1.2177330  -0.8035322
   0.0304724   0.2414526   0.0267392  -1.3403288  -0.4405175  -0.5934718
   1.1975913   0.3706734  -1.0205165  -0.0923567  -0.0944839   0.2925399
   0.1391560  -1.5747406   1.5140145   1.7098805  -0.3188659  -0.3528138
  -0.2901517  -0.1514660  -0.3262777  -1.1810529  -0.4986017  -1.1177912
  -0.4775164  -0.1605307   0.1674401   0.1196797  -0.0630228  -0.0590857
  -0.9141926   1.7508674  -1.2195146   0.1616584   0.9219742   1.2840095
  -0.3242871   0.0316229   0.1864330   0.6695755   1.0696263  -1.4293343
   0.7986259  -0.3462596   0.3697669  -0.2424238   0.0310846  -0.0992360
   0.4018236  -1.9675149   0.8491234   0.4625668   0.8815873   0.1047986
   0.1646836   0.1009463   0.1119650  -0.1575537  -0.7029169  -0.2000965
   1.1442348  -1.5351213  -0.2915764   0.1788478  -0.0949873   0.1555541
  -1.6754398  -0.6047301  -0.1939720   0.6029107   0.5030652  -1.1978409
  -0.2416982   0.0618780   0.1989041  -0.0097971  -0.1917366  -0.8439745
  -0.1517659   0.2404312  -0.4886686  -0.0589380  -0.0253851   0.1447272
  -0.5439651   0.4299275  -1.0853882  -0.8687781  -0.0338687   0.7791232
  -0.0672489  -0.2512170  -0.0399953   0.6614976  -0.2238974   0.5549559
   0.7886090  -1.0913274   0.4710136   0.1558101   0.0728128  -0.3007825
   2.2415028  -0.8150671  -0.0454054  -1.3151380   0.8185553   0.1722631
  -0.3317402  -0.2578110   0.0708931   0.3979664   0.0888126   0.0925061
  -0.1078715  -0.5620301  -2.1005549   0.1639684   0.0710626  -0.0931799
   0.6661667   0.9238960  -0.6882193   0.6072530  -0.1067178  -0.6574251
  -0.1109560   0.1520926   0.0364715   0.1741167   1.1521506   0.9096851
   0.0826409  -0.1840615   0.0132128  -0.2453963   0.0242272   0.1128655
   0.5487888  -0.2690884  -0.1911375  -0.2135973   1.4441589  -1.3332593
   0.4312674   0.0433749   0.1776532  -1.2693138  -0.0242348  -0.5913485
  -1.0938746  -0.1254200  -0.4965182   0.3280621   0.1094058  -0.0422674
   0.1039650   0.3418818  -0.1479490   0.4326038  -0.8801973  -0.2693776
   0.0874201   0.3048793   0.2324371   0.8136219   0.4088675  -0.2488450
  -1.1467441   0.0971560  -0.1083242  -0.1143923   0.0900395  -0.1636925
  -0.6072019   0.4184634   0.2799510  -0.4217482  -0.7622529   0.4597233
  -0.1086632   0.2674436   0.2372244  -0.9024270   1.2095646  -0.4935710
  -1.1902858  -0.1881319   0.2918910   0.1987554  -0.3306946   0.1422427
  -0.2267279  -0.4129118  -1.5257692  -1.3641282  -1.2071288  -1.8256805
   0.0163326  -0.2429081   0.1589724   0.1762127  -0.1853348  -0.1876625
   1.4998581   1.3177596   0.7637401  -0.0995000  -0.2539751  -0.0901323
   0.4197187  -1.0754790  -0.2128316   1.5431343   1.0280530  -0.3859630
  -0.3702998   0.2779105   0.0740218  -0.1437494   0.1262045  -1.0760552
   0.5872649  -1.0747739  -0.2454971   0.2604669  -0.1897225  -0.0171048
   0.0253186  -1.0561249   0.3477971  -1.6783878   0.0809463   0.2362268
  -0.3758261  -0.1353463   0.0903831  -0.2064076  -0.6432578   1.9388375
   0.3596543  -0.1635638  -1.2789440  -0.1243858   0.2035136   0.1896837
  -0.6745708  -0.0306542  -0.4489289   1.4797122  -1.1091720  -0.1165699
   0.0844771   0.0033012   0.1013868  -0.9340026  -0.9358023   1.9155070
  -0.2752754   0.6752136   0.5949147  -0.2638733   0.2172242  -0.0061828
   0.2637531   0.4873376  -0.4018668   0.5033799   0.1180014   1.6285106
   0.2072953  -0.1008417  -0.1706630  -0.3871482   0.3995578   1.6250126
  -0.3790854   0.5658167  -0.6768782  -0.1037065  -0.0679969   0.2166493
   0.7143021  -1.2984958  -0.7836642  -0.4624085   0.4162275   1.4878161
   0.0217434   0.0117957   0.3821872  -0.0493572  -0.6277407   0.8530890
   0.3297767  -1.7166734  -0.0995111   0.0247010   0.0440127   0.0708465
   1.0547625  -0.2484370   0.1861495  -1.2649499   0.7678459  -1.5033958
  -0.0983212   0.3234619   0.0958686   0.5108654   0.1161196  -0.1148460
  -0.4807522   0.9532806   0.0027541   0.1696809   0.0742759  -0.0985437
  -0.6783178  -0.6850359   1.1786537   0.9185343  -0.3019976   0.7479214
  -0.0587873  -0.2101702  -0.1121276  -0.7506753   0.3127400  -0.0732922
   1.0730259  -0.5678323  -0.2534659  -0.0814451  -0.1994301   0.1552665
  -0.3047663   0.7226996  -0.2447698   1.5672128   1.0185021   0.6707564
  -0.0152721  -0.3952211   0.0254859  -1.1558135   0.2079803   0.1349019
   1.3880216   0.8323592   1.2524320  -0.0643018   0.1703091   0.0028988
   0.6323618   0.1069864  -1.0105015   0.2812632   0.0745595   0.1634118
   0.0711819  -0.4226268  -0.1523388  -0.5290340  -0.4428489  -0.7973461
  -0.0263152  -0.2847895  -0.3493695  -0.1952633   0.0555695   0.1139566
  -0.8430454  -0.5357683  -0.0904964  -0.1139486   0.1024171  -0.9416767
  -0.2086002  -0.0474172   0.2279682   1.0381147   1.1417005   0.5530348
  -0.5418281  -2.0797219   0.7785710  -0.2167706   0.1415420   0.0603539
  -2.2178183  -0.3676157   0.0224994   1.0191369   0.0543490  -0.4423636
  -0.0381346   0.1417495  -0.3176060   0.3265748   0.5017576  -0.7792153
  -0.2150875  -0.4227797  -1.3792828   0.0185304   0.1778670  -0.0877376
   0.2389266  -0.3350450  -0.4335995   0.7217418  -0.0442369  -0.8137547
   0.1729777  -0.0296708  -0.2653510   0.1567382   0.1551664  -0.2159883
  -0.6436397   1.4382966  -0.4998419  -0.2260169   0.3432544   0.0809550
  -0.0779330   0.2939847   0.5365839  -0.6385127   0.3836573  -0.9996302
   0.1117475   0.1864096  -0.0352002  -0.5745229  -0.9903798   0.8845534
  -0.3692707   0.9036238   0.5744061   0.2756540  -0.2725362   0.0755730
   0.7618127  -0.2617064   0.7524011  -2.3241794   0.8416263  -2.5454819
   0.1217749   0.0445385  -0.4425071   0.6379047  -0.6917426   0.9782515
   0.0521800  -1.0651885   1.5848043   0.1663379  -0.2177162   0.0132641
   0.0341715  -0.8186108   0.2662758  -1.1871763   0.2268595  -0.2085836
  -0.4548717  -0.0351616  -0.0035342   0.2455636  -0.3030582  -0.2212833
   0.0859995  -0.2590569   0.0870191  -0.3635354   0.2151763  -0.3339795
  -0.8835571  -0.5201638   1.3330539  -0.0498263  -0.0663600  -0.2740377
  -0.1576851  -0.2097173  -0.4751412   0.1710524   0.2434974   0.3964571
   0.4145291   0.4055847  -0.5971566   0.2272728   0.2702904  -0.0838049
   1.5780519   0.3867789  -2.2811553  -0.1843481  -0.6480824   0.3368655
   0.4079334  -0.1375529   0.4239298   0.0214204   0.6037527   0.5260088
  -0.1588352   1.0092208  -0.9449601   0.0252475  -0.3124883   0.1214749
  -0.6291324   1.7719178  -0.6328297   0.9215328   0.0755897  -0.2820515
   0.1817470  -0.1566896  -0.0440791   0.0572381   0.8849688  -0.3302929
  -0.1941506  -0.9425618  -1.0025184   0.0797418   0.1300642  -0.1113069
   0.4408346  -0.7316206  -0.0585175   0.3805521   0.0070538  -1.8231419
  -0.0328189  -0.2315045  -0.5067117  -0.7994531  -0.5479668  -0.5999828
   0.1379542   0.4379400   2.6363413   0.4123785  -0.3719482  -0.0187405
  -1.9335022   1.0010805   1.1097636   0.4990882  -0.2528014   1.4895577
  -0.0664352  -0.1963389  -0.1262991  -1.5113025   1.2291524   0.0658089
   0.1355728  -0.1864487   1.5696968  -0.0522010  -0.1914046  -0.2001320
   1.1184276   0.1635870   0.8446778  -0.2128025  -0.3205928   0.3303344
   0.2976000  -0.0078124  -0.1298339  -0.3084606   0.3064339  -1.3363200
   1.4629316   1.0677834  -1.2858640  -0.3408182  -0.3157369   0.0575731
  -1.4744642   0.7649130  -0.0591671   0.4693653  -0.2227326  -0.4178257
   0.0702409  -0.1336161  -0.0554632   0.0361324  -0.0420917  -0.5525703
   0.4244619  -1.6846622   0.7908778  -0.2953928  -0.2081555  -0.0869461
  -0.5088018   0.9677879  -0.2759517  -0.7578761   1.2188947   1.4944483
   0.1672934  -0.0034897   0.1876073  -1.7780180  -0.3221758  -1.2525311
  -0.2643999  -0.3958067   0.3764146   0.0708970  -0.0871115   0.2728864
   0.6414403  -0.1928580   0.8537477  -2.2277825  -1.1223239  -0.7279792
  -0.2538011   0.2834843  -0.0418866  -1.1543115  -1.0263255   0.2184353
   1.6931484  -0.8857332  -0.4590839  -0.1693799  -0.0269407   0.2959604
   0.4082345   0.6020433   0.1675184   0.0125797   0.5022336   0.1063285
   0.0294231  -0.0482930   0.0673121   0.0799235  -0.3535140  -0.6241203
   0.2569736   0.2477827  -1.2855537   0.3719181  -0.2835395  -0.3556578
   1.0403284  -0.4556193  -0.4361651   0.1673591   1.4925131  -0.5626804
   0.1807465   0.0344756   0.2608900   0.5764979   0.1450917   0.1504042
   0.3990851  -0.2513226  -0.2979419   0.0601635  -0.2840652  -0.2219204
  -1.0121756   1.5348854  -1.7839478   1.3926694  -0.0650650   1.6681762
   0.2592988   0.0110515   0.0314796  -1.0124910   1.3903432   0.4776783
   0.6058927   0.7040371  -0.2574344   0.0838028  -0.0409612   0.5776698
  -0.5363770  -0.4123127   0.6667499  -0.1677148  -0.9897414   0.8528429
  -0.1323962  -0.1986300  -0.3487711   1.7169454   0.0948575  -0.4300638
  -0.4571984  -0.4940682   0.8330669   0.0464890  -0.0267985   0.0308418
  -0.9691182  -1.0367799   0.4746125   0.1809945   0.5457094  -2.1523492
  -0.1663261   0.0136854  -0.2046876  -0.2084185   0.4828735  -0.6404104
  -0.5793977   1.0638689   0.3573475  -0.0583438   0.1628435   0.1821179
  -1.7208351   1.6792686   0.6754540  -0.5549040  -0.4528213  -0.7387262
  -0.0954729   0.0964824  -0.0422635  -0.7981593   0.3752412  -0.4814727
   0.3496664  -0.5287738  -0.0219251   0.0776603  -0.0592642   0.3370811
  -0.1356221   0.6986233  -0.6847266   1.9808164  -0.4305930   0.6222985
   0.0202319   0.3261479   0.0970717   0.6214345   0.6095839   0.2229431
  -1.2802150   0.9262436  -0.5596746  -0.0799937   0.0648380   0.0886394
  -0.6681839   0.0161563  -0.5838833  -0.7191315  -0.9740123   0.6991782
   0.0860276   0.2274031   0.1010356  -0.1284242   0.3180917  -0.0680551
   0.0232088  -0.3332829   0.4963040   0.1430671   0.1001315  -0.5921563
   0.1874706  -0.5227369   0.4618149   1.4491998  -1.1537282  -1.2132916
  -0.2346824  -0.0137661   0.1365590   0.7294587   1.5390466   0.2115836
  -1.4412022  -1.1443701  -1.2505552   0.1470311   0.3844631  -0.3169278
  -0.0776541   0.6499124  -0.0135183  -0.6620426   0.3052877   0.3834640
  -0.0751258  -0.1124549   0.0971060   0.5309020   0.5451877   0.1519309
  -0.5172750  -0.3266436   0.4998190   0.0519455  -0.2040610  -0.0854370
  -1.5365304  -1.2978324  -0.9449800   0.6808408   0.3723871   0.8160861
  -0.1751521   0.0938078   0.3419665   0.5313879   0.7795624   0.4315493
   0.9808776  -0.2792177   1.0237231  -0.1331017  -0.1253351   0.1644909
   0.6420800  -0.8979325   0.2673141  -0.2354000   0.2391912  -0.8137282
  -0.1378042  -0.2171022  -0.1354544   0.2352241   0.4506210   0.3865816
  -2.1096680   0.2228310   0.0823446   0.1016453   0.3254274  -0.3348678
  -0.0687800  -0.8264420  -0.2136702   0.0131792  -0.5547786   0.1593976
   0.0805971   0.0532981  -0.1091273   0.5220537  -0.5249847  -0.5327093
   0.0414372  -1.7298772  -0.7432300  -0.2058969   0.2599994   0.0259982
   1.0048448   0.7223139   0.0824959   1.0658298  -0.0699798  -0.7559971
   0.1410701   0.1240294   0.0421149   1.5686398   1.1604902  -1.7033395
   0.1450015  -2.1391220  -1.3880671  -0.0183062   0.0116556  -0.0475097
  -0.4235205  -0.8519950   0.7490649   2.3602195   0.1686165   1.2577604
   0.3282070  -0.3614132  -0.0532282  -0.9583172  -0.5560262   0.5885782
   0.5863472   0.1171442   1.6747135   0.1000928  -0.0170699  -0.0568589
   0.6267036   0.8179764  -0.1527802   0.3659616   0.6373365   0.6634188
  -0.0499829   0.1745938  -0.2770029  -0.3277449  -0.4549280  -0.5546776
   0.3092127  -0.6173522   0.7315545  -0.2786333   0.3833666  -0.0553107
  -0.0206947   0.5062547   0.2392959  -1.1613624   0.6269745  -1.4462501
  -0.0550278  -0.0110279   0.2677900  -0.7591993   0.5752586  -0.7187899
   0.1895965  -1.3355823  -1.2578753   0.1313195   0.1658193  -0.0146384
  -1.0932757  -0.8968258   0.4305113   1.0820826  -0.0617499  -0.7312565
  -0.2815601   0.0173537  -0.1200408  -0.8680618  -0.0972301  -0.0517206
   1.5209302   1.3341680  -0.4746384  -0.3271888  -0.1992277   0.0002379
  -0.9939494  -1.2588108   1.5511802   2.2094295   1.0298241   0.7508710
  -0.1819463  -0.0616249  -0.2652364   1.4983206   0.0156261   0.5524924
   0.2209248  -1.7607235   0.4074154  -0.0428281   0.1314471   0.2089303
   0.1080582  -0.1578947  -0.7504543   0.5913497  -0.5569594  -0.2195183
  -0.2398026   0.0343043   0.4112693  -1.7043744  -0.3917500  -0.3921873
   0.0898458  -1.1428295   0.1516341  -0.0965836   0.1113591  -0.0288040
  -0.7705782  -0.0176417   0.5236478   0.8644934  -0.5828556  -0.0178794
   0.1032398  -0.3221962   0.0538718   1.1150558  -0.2359579  -0.4844969
   0.9106513   1.0600488  -0.6523400  -0.2110517  -0.1336567   0.2501421
  -1.0755221  -0.2619129   1.0526941   0.7312819  -0.8929415   0.2415427
   0.0241536   0.5322276   0.2733073   0.7943541   1.0120459  -0.0144298
  -1.0709229  -0.5164193  -0.4812381   0.1026826  -0.2169679  -0.7141095
   0.5024393   0.3586606   0.4125746   0.9742295   0.5948771   0.2547641
   0.1734965   0.2421879  -0.0518185   1.9362541  -0.4042693   0.3240429
  -0.3694651  -0.1192733   0.3061362   0.0818749   0.3246002  -0.0176869
   1.2052377   0.0758914  -0.0693424   0.3161618  -0.8238932  -0.5740045
  -0.1980052   0.0280158  -0.0845998  -0.7940365   0.8849391   1.1588943
  -0.4080792  -0.6849080   0.5647632  -0.3433684  -0.0755857  -0.1917785
  -0.0995971  -0.8649360  -0.9296948  -0.0942809   0.0850777  -1.6241622
   0.2013447   0.1350602  -0.0156192  -0.6434011   1.1616873  -0.0266081
  -0.2181008   1.0699694  -0.8391854   0.1021820  -0.0271268  -0.1698369
   1.0285671  -0.4992320   0.1310213  -0.0347653  -2.2710559  -0.2402686
  -0.0456360  -0.0828787   0.3017099   0.0838649  -1.1263075   0.4659549
  -0.1104413  -0.5420703   0.3292273  -0.0279292   0.0465947   0.3651165
  -0.3024597  -0.2047487   0.7630901   0.0218618  -0.4305905  -1.2045643
   0.0322009   0.0128999  -0.2543573   0.4187163  -0.9259338  -0.4023355
   1.0358657   1.4307541  -0.6085687  -0.4117131  -0.2707216   0.0436060
   1.2390159  -0.6488823  -0.6691126   0.0023632  -0.5050558  -0.2892391
  -0.0652288  -0.1133754  -0.1207236  -0.8899262  -0.3263589   0.4889246
  -0.2267975   0.2632333   0.4988398  -0.3338257   0.3481043  -0.0251014
   1.1794741   0.4898668   0.1867197   0.8189781   0.3790257  -0.8323910
  -0.2639153  -0.2401343   0.0555015   0.2421083   1.9742244  -0.4595086
  -1.6567659  -1.0190886   0.1061095  -0.0939770   0.0100713  -0.1575990
   1.1566603  -0.1135439   0.9069774  -0.4084181  -0.9444306  -0.4331774
   0.5219727  -0.1970667  -0.0992499  -0.9060924  -0.4323615  -0.4238553
   0.4307237   0.3203024   0.4927284   0.1107937   0.1154442   0.1063610
  -0.1529785  -0.7277838   0.2331838   1.2961609  -1.0135413   0.5574594
   0.1157195  -0.2623718  -0.1110361   0.6556437   0.5301995  -0.2282257
   0.4527168   0.0357859   0.9160263  -0.0160195  -0.2462729  -0.2002389
   0.8656473   0.2668397  -0.5667563   0.6411535   1.1204838   0.2602759
   0.1899385  -0.0071815  -0.0712701   0.0391406  -0.9920719   0.3345044
   0.7862697  -0.0982701  -0.7586579   0.1977441   0.1291575  -0.0630417
   1.3847361   0.8088372   0.1280647  -0.4365233   1.0985696  -0.7895384
   0.0771772  -0.0614786   0.2211246   0.5128006  -0.8248985   0.2555626
   0.6498709  -0.7409772  -1.3314693  -0.0588283  -0.0382977  -0.1971145
  -1.4467202  -0.0518072   0.5798213  -0.4545782  -1.4830517  -0.1325805
  -0.0547855   0.0157769  -0.1688459  -0.3438233  -0.5642980   0.1999654
   0.6111376  -1.2407390   0.7860817   0.0077253   0.3822722  -0.0199349
  -0.0463282  -0.3883938   0.2754294   0.6205557   0.3232222   0.1251480
   0.1087125   0.0063327  -0.0384810  -0.1105936   0.7068803   1.0197160
   0.3915498  -0.3004404   1.4085629   0.2378925  -0.1818025   0.2763061
  -0.1713648   0.0589918  -0.1789384   0.3212683   1.8094808   0.6244666
  -0.1268012   0.3649066  -0.0304552   0.5451623   0.0389587  -0.7161040
   0.8609126   1.2201521   0.0339664  -0.3261094   0.0161652   0.1901899
   1.3623219   0.3452180  -1.0920991   0.1686246  -1.1683314  -0.3131124
  -0.1090084   0.1016597  -0.0785642   0.4349049  -1.2661084  -0.2087484
  -1.2518795   1.4794228   0.3748598   0.0851409  -0.0244965  -0.1573868
  -0.6301305  -0.1466223  -0.1804699   0.3960054   0.2269721   0.5663394
  -0.0648796  -0.0173471  -0.0644683  -1.0654415  -0.3472698  -0.8741693
   1.2122504   0.1330959   1.2666063  -0.0973960   0.5164694   0.1038490
  -0.4474796   0.5189461   0.1560933   0.1596923   0.5929115   0.1424736
  -0.0482646  -0.3797527   0.1960215  -0.3592660   0.0131417  -0.0544664
   0.6626732  -1.1204913  -0.7254205   0.0527386  -0.0589924   0.1221422
  -1.1441158  -1.1052841  -0.6210594   1.5195906  -0.8119735   0.0088515
  -0.1844172  -0.2338595  -0.1913430  -0.1271565  -0.5099804   0.6586177
  -0.4728831   0.9814770   0.8723679   0.0633143  -0.0876090   0.1281666
   0.7425497   0.5225683  -0.4876344   0.9651513  -0.1008122  -0.8634946
  -0.0112173  -0.3048254  -0.0636905  -0.4193924  -1.5161244   0.1861243
   0.0527535   0.8657443   1.2700255  -0.0067170   0.1524258   0.0109934
  -0.1970946  -0.0475882  -0.7742204   0.2065636   1.1217576  -0.0258006
  -0.1637889  -0.1397967  -0.2764869   0.0039507   1.5690944   0.7601872
   0.4110882  -0.2271768  -0.1498034  -0.1671443  -0.1943844  -0.0136751
  -0.6711271   0.6380523  -0.3941570  -0.4251415   0.4405237  -1.3155844
  -0.3346422   0.0969405  -0.0624344  -0.0117480  -0.7218004  -0.4162039
  -0.5083704  -0.2271455  -0.8909256   0.0769505  -0.3473922   0.1477836
   1.5433120  -0.1895005   0.6701694  -0.6877663   1.3481013  -0.8086861
  -0.3427897  -0.1457415  -0.1998710  -0.1115453  -0.1607440  -0.4639929
   0.7511210   1.1962171   0.5695275  -0.0583287  -0.1852070   0.2502064
  -1.0119747   0.6118267   0.0142574   0.1168590   1.0739241  -1.8159221
   0.0854650   0.2279734   0.0578331   0.7210560  -0.4822060   0.7464846
  -1.0345601   0.3054109  -0.9758106   0.2333144  -0.3263776   0.0717993
   0.7050551  -0.5546169   0.6395607  -1.3508079  -0.2381145   1.0179899
  -0.1427035   0.2112444   0.0599215  -0.8150570  -0.3499928   0.7347816
   1.1784868  -0.1692349   0.3817116  -0.1710066  -0.2558687  -0.0484080
  -0.8022743  -0.8645805  -0.0739593   1.1342587   0.7389508   0.7576405
  -0.0409205   0.0415216   0.2522357   0.6388971   0.6601669   1.0386816
  -0.6593096   0.4747832  -0.1648670   0.1767657  -0.0932511  -0.1523194
  -0.3172577   1.1450642   0.0789931  -0.7507525   0.0907246  -0.8562549
  -0.0053541   0.2258977   0.0087842  -1.0670798  -2.0061157   0.3452578
  -0.3247841   1.0099365   0.0797146  -0.2115366  -0.2047343   0.2181175
  -1.0268379   0.1226994   0.4648121  -0.3442181   1.2765785   0.1028683
   0.2005051   0.2936691  -0.0770597   0.3295432  -0.8886740   1.5515378
   0.2394595   0.3740141   0.1176791  -0.2134870   0.1122490  -0.2552182
   0.3435368  -0.3367057  -0.2555923   0.0128529  -0.6553631  -0.4420778
  -0.1624257  -0.0038397  -0.1394642  -0.5606434   1.0352032  -0.5314121
   1.4877493  -0.3638640   0.0344676  -0.1997713   0.1268775   0.0706694
   1.1832794   1.1560022   0.2474060   0.9005917   0.6557422  -0.8179079
  -0.0384714  -0.4315277   0.1615311   0.1190051  -0.4278163  -0.2050178
  -0.9526511   0.9170840   0.6655449   0.1787783  -0.0345531  -0.0013273
  -0.6394390  -0.2078205  -0.1391529  -0.2912059   0.1106054   0.0822937
  -0.1173731  -0.0976004  -0.2534926  -0.5185727   0.9062285   1.3329511
  -1.0408182  -0.0726656  -0.8909039  -0.2130051   0.0702750  -0.1883205
   0.5889266   0.0977406   1.0876476   0.4067243  -0.1230626   0.4505771
   0.0049120   0.0715789   0.2700328  -0.2489753  -0.1410142  -1.6781543
   1.3152031  -0.8007839   0.2101390   0.0861146   0.1261191  -0.0165484
  -0.2766235   0.3131620   0.3554613  -0.0237164   0.4246410   1.5301114
   0.0380638  -0.2504600  -0.3510644   0.0937150   0.5933776  -0.3380743
   0.9194037  -1.4099752  -0.6019570  -0.1193625   0.0139264  -0.0410199
  -0.6001692  -1.0261084   0.9568470   0.4116049  -0.1853024  -0.2366505
   0.3844787  -0.1980376  -0.2888754  -1.8051409  -0.0326230   0.2784863
   0.7712693   0.1788803  -1.0080869   0.2050907  -0.1905290   0.1803464
  -1.0863051  -0.8883905  -0.6973159  -0.6344235   1.1867200   0.3399621
  -0.0265824   0.1380710   0.0050933   0.6442229   0.2807215   0.1819361
  -0.3512087  -0.5122594   0.2563642  -0.0685850  -0.0921752   0.1016136
   1.0968355  -0.3509215   1.5391389  -2.5491188   0.9781169  -1.2277585
  -0.0516914   0.1399813  -0.1288081   0.2360270   0.2435443   0.0065600
  -1.2086307   0.2001799  -1.0276480  -0.0419763  -0.5079638   0.0672051
  -0.8193827  -1.2132100   0.9466100  -0.8544808  -2.1884251  -1.0815436
  -0.1311923   0.1550715   0.4282869   0.2509353  -1.3139539   0.4033138
   0.3007963  -1.1517552  -0.4513135  -0.0974283  -0.0625084   0.0376870
  -1.2079103   0.1307772  -0.4370570  -0.8221675  -0.5744281  -0.1616042
   0.1913594   0.2595862  -0.2194954   0.3863849   1.0535049   0.5253260
  -0.3346405   0.3286538  -1.2502120  -0.0400538  -0.1200481  -0.1730824
  -0.4282771   0.6637309   0.2565878  -0.7450295  -1.1899625  -0.9108518
  -0.0942267  -0.0311175   0.0254950   0.3252364   0.7314100  -0.8542321
  -0.7090602  -1.5181917   0.9060662   0.1290060  -0.0809325  -0.0518609
   1.7342106   0.6225354  -0.7488251   0.1124599  -0.2536925  -0.7268230
  -0.2146682  -0.0623448  -0.4435535  -1.8839514   1.0431117  -0.6764876
   0.5203034  -0.3436787   2.1483161  -0.0691989   0.0406542   0.1444905
   0.1149251  -0.6067190   0.5408226  -1.8093508  -0.4047428   0.8833554
  -0.0749702   0.0744428  -0.0326657  -0.3099320   0.5682231   1.2279549
  -1.1505142   0.4971050  -0.6395098   0.0824707  -0.0657683  -0.0410727
  -1.1418651  -0.9244861   0.6161528  -0.0970146  -0.9523426   0.2549905
   0.0150081   0.1453183  -0.1081443   1.4856362   0.7858983  -1.0835441
  -0.5682943   1.1676706  -0.0925442  -0.3005365   0.0760158   0.3140388
  -1.2026088   0.8745179  -0.5336463  -0.3212303  -1.3316832   0.9783064
   0.3525113  -0.2381522   0.1295488   0.9488477   0.2444856   1.1015269
  -0.2704745   2.7017226  -0.9990503   0.6331619  -0.1167404   0.1642244
  -0.9858549  -1.4928912   0.0535963   1.1611904  -0.0927671  -0.6533353
  -0.3503493  -0.2039423   0.1668281  -1.4616848  -0.2549719   0.0151903
  -0.9373819  -0.5439993   0.9320855  -0.0328560  -0.0879315  -0.2314226
  -1.4962089  -1.5007802   0.1638887  -0.2712023  -0.6612974   1.6712977
   0.1721046  -0.2364849  -0.0991435   0.6212657  -1.2453920   0.9839193
  -0.9475722   0.4853842   0.4970927   0.0603985  -0.3679616  -0.0176208
  -0.6744049   0.8350631  -0.0796602   0.3226187   0.9776616   0.7400718
  -0.1148688  -0.2523724   0.3661793  -0.8424758  -0.2371732   0.1551148
   0.3137331   0.2767853   0.6316774   0.0958925   0.2302887  -0.1353509
  -0.4199632  -0.8983390   0.5238062   0.0259862  -0.4386871   0.6324690
  -0.1869744   0.4155219   0.2587470  -0.6602586   1.4499750   0.9127654
  -0.6935107  -0.3823213  -0.2793070   0.1089621  -0.3184653  -0.2267859
   0.1507879   0.0088405   0.3415091  -0.5335079   0.2784051   1.1929256
  -0.0475962  -0.0082272  -0.1848155   0.7735932  -0.7865760   1.1166061
   0.1064767  -1.3263932  -1.3640283   0.2449734   0.0812383  -0.0410691
   1.2285204   0.4218894   0.1506704   0.6963807  -0.4388210   1.1166220
  -0.0999698   0.0858399   0.0229721   0.2232613   0.1550954  -0.2810373
   1.2665677   0.9096332  -0.6743546   0.1960479  -0.2529686   0.1037260
  -0.2002289  -0.2479414  -0.4353642  -2.3534651  -0.5383468   1.2652266
   0.1268086  -0.1386864   0.1277490   0.0791354  -0.7242110  -0.9428967
  -0.4723437  -0.1626028   0.4351373  -0.2115158   0.2155762  -0.1358006
  -0.6755536   0.0740709  -0.6871392   0.0353185  -0.9832787  -1.6488969
   0.2720366   0.1362081  -0.3301341   0.0210964   1.6560313   0.4338866
   0.3252979   0.4410514   0.7707483   0.2132671  -0.2213364  -0.2289626
   0.8517054   0.1987862   0.3758452  -0.0238166  -0.1086398  -0.9161260
  -0.3847874  -0.0524838  -0.2049799  -0.6035618  -0.4677881   0.1575114
  -1.2717493   1.5193809   1.9371129   0.5900202  -0.2103166   0.0343680
  -1.0425205  -1.2610744   0.3327584  -0.4313507   1.0528144  -0.5486585
  -0.1473013  -0.1050366   0.0411281   1.1608098   0.2067569   0.3667295
  -0.0563297   0.5739595   1.0863297   0.0759990  -0.3165714  -0.2033376
   0.6174091  -0.7382646  -0.6751899   0.7557968  -0.7724643   0.6900144
  -0.0006230  -0.0426586  -0.0764932   0.8747318   0.4073531   1.6932211
  -0.0912682  -0.4818310   1.0344819   0.2353821   0.3219297   0.1040740
  -1.6395404   1.5777935  -0.6174043  -0.1713765  -0.2906226  -1.2918549
   0.0826897   0.1013847   0.0786461   0.9870101  -0.7905138  -0.3035060
  -0.6348611   0.5733732  -0.0487930  -0.3133120   0.1033855   0.2570159
  -0.3767418  -0.6728945   0.2729681  -0.0632488   1.1630433   1.4710046
  -0.0703371  -0.2883331  -0.2709575  -0.9425258   0.8309616  -0.4141561
  -0.6607288  -0.2835633  -0.4870792  -0.2122556  -0.0155612   0.0868981
   0.5655987   0.1745776   0.4464979   2.5874448   1.3098215  -0.1053706
  -0.0952234   0.0125446   0.1263082  -0.9041032   0.5203486  -0.0804120
  -1.6578454  -0.5440879  -0.0382739  -0.2481088   0.1289563   0.0775767
  -0.3013649  -1.4292295   0.2893740   0.4424315  -0.1621248   0.3787200
  -0.0012206   0.2822014  -0.2442335   0.1100223  -0.4321298  -0.4776819
   0.2694473   0.6657504   0.0043734  -0.1122712   0.1189864   0.6625316
  -0.2636830  -2.4239063   1.1715580   0.5107564  -1.1139685   0.1196047
  -0.0926863   0.3177345   0.1259224  -0.4949189   1.1194392   0.6156111
  -0.2368137  -0.7925471   0.0879312   0.3432695   0.0931291  -0.4058031
  -0.2596624   0.4808248   0.3814413  -0.5525964   0.7626739   0.0685470
   0.0414643  -0.1105583   0.1058569   0.4663042  -1.2377369  -0.5329702
   1.1281956   0.3200537   0.6737773  -0.0104349  -0.0916132   0.2998454
   0.6241934  -0.5742961   1.0509752  -0.4497423  -1.8879333  -1.1093409
   0.1894296   0.3979902   0.2870446   0.3284808  -0.4612223   0.3814137
   0.1564125   0.1384980   0.1202384  -0.2794033   0.3306027   0.1687322
   0.1300795   0.4319997  -0.2346143   0.1386713   0.4196152  -0.1483817
   0.2776181  -0.4111928   0.3454122  -1.2316238  -0.4790623  -0.1558609
   0.4973151  -0.1816585  -0.0885231  -0.2032857   0.0078209  -0.2152239
  -0.4050739   2.0280187   1.6087650  -1.5019922   0.0936749  -1.1450083
   0.0815301   0.0405188   0.3104453   0.9866387  -0.0468609  -0.7763610
  -0.4299206  -0.0099836  -0.8416233  -0.0299095  -0.2165553   0.2222326
  -1.1680166   0.6049125  -0.2023179   0.0169590  -0.8507984   0.5116479
   0.2694032  -0.2819166  -0.2023563  -0.9597223  -1.9710366   0.6766432
   0.4190297  -0.5474908   1.6767499  -0.3175674  -0.0836520   0.1129352
   1.3763779  -0.6101722   0.6160647   1.0152438   2.0624273  -0.9524963
   0.1468474   0.0827665  -0.0400652   0.7796060  -0.6951181   0.2996854
   0.5661686  -0.1242585   0.5495011  -0.1390120   0.0039931   0.1447539
  -0.1925709  -0.9189003  -0.2533201  -1.6415178   0.8100039  -0.5459235
   0.0671775   0.3159330  -0.0167463   0.0404744  -1.7707733   0.3328661
   0.3648457   0.6784987  -0.5378519   0.2188080  -0.0572081   0.2479971
  -0.5039443   0.0764683  -0.2284359   0.0506584   0.1474364  -0.6028090
  -0.1561375   0.3467148   0.1351233  -0.8488919  -0.0834363   0.6266567
   0.5055135  -0.5155431   1.2108177  -0.0161909   0.0899633   0.0599387
  -1.2341785   0.4758065   0.9417420  -0.3384207   0.0946855  -0.4076963
  -0.0585000   0.0365974   0.1024352  -0.2782005   0.5690531   1.4934592
  -0.3957296   0.3805171   0.6927763  -0.2618593   0.2983166  -0.1131800
  -0.6735570   0.0032055  -2.2000461   1.4708120   0.3358520   0.5624774
  -0.0950873   0.0236009  -0.1978637  -0.5113411   1.2283826   0.8435323
  -0.4795089  -1.0991713   0.8656311   0.0569259  -0.0443706   0.2379779
   0.3060202   0.1525873  -0.7625684  -0.1349402  -1.4140145  -1.8122559
  -0.0003569  -0.0266835  -0.1250457   1.3117694  -1.1729794   0.6942891
  -1.1072050  -1.1578771  -0.4244464   0.0055503  -0.1772998   0.0199283
   1.2517198  -0.8130537  -0.9933665  -0.0498897   0.0552934   1.5607615
  -0.1854277   0.0534952   0.3228073  -1.0886217  -0.7547727   0.4458444
  -0.3133458   1.2006261   0.2011058  -0.1496757  -0.1383583  -0.0915984
  -1.0258477  -1.2482772  -1.6723691  -0.5574988  -0.8778876  -0.4043501
   0.1134503   0.1887127  -0.0840393   1.0672979  -0.1895600   1.5716021
   0.3845956   0.2123231  -0.6749363   0.2212213  -0.3547663  -0.0478253
   1.2809067  -0.1911297   0.3212280  -1.6345003  -0.3709139   1.0284973
   0.2288133  -0.0216902  -0.0914982   0.2893699   1.0049473   0.7501056
   0.3097536  -0.5516880  -0.6200686  -0.0040915  -0.1958103   0.0622406
   1.3119059   0.4119359  -0.2991597   1.2866095   0.4574294   0.3027011
  -0.2176678  -0.2478442  -0.1502312   0.9672940  -0.5012570  -0.2449704
  -0.0821856  -0.8740602   0.5297991   0.1347524  -0.1972414  -0.2419134
  -0.2860582   0.2894790  -1.2542017  -0.1461804  -0.5476155   0.4296363
  -0.5661035  -0.2213386   0.0173494  -0.3331015  -1.4180679  -0.0430725
   0.1101300   0.5364230   1.1188718  -0.0729421   0.0709901  -0.1378268
  -0.0746418   0.5225400  -0.0498805   0.9566733   0.1435057  -0.7632176
   0.1517804   0.0515851  -0.2497033  -0.7940987  -0.7975003   0.4469110
   0.4240807   0.0479563   0.2679079  -0.0130774   0.0776799   0.1903004
  -0.3382531  -0.4875365  -0.6571299  -0.0871726  -0.8669986   1.2138667
   0.1961512   0.2128217  -0.4672631   0.4167367  -0.7107025  -0.0469899
  -0.6592269   0.2154522  -0.6783175   0.0608926   0.2643681   0.0362840
  -1.4573323   0.3280627   0.8239685   0.5281132   0.6747673   0.1205699
   0.2407954  -0.0611053  -0.0330512  -0.6662055   0.9554682  -1.2843484
   1.5843714   0.2267143   0.0920105   0.2908625  -0.1392981   0.2765124
  -0.1321139  -0.4846141   0.2054948  -0.0267743  -0.3598313   0.0646496
   0.0990297  -0.1005506  -0.0223330  -1.4309256  -0.3549380   0.7443418
   0.3350858   0.8906364   0.0588906  -0.0125109   0.0058185   0.1906164
  -1.0179094  -0.2282334   1.3365023   0.5245271   0.0161467   0.2854355
  -0.2515371   0.3734947  -0.0310775  -0.6750725  -0.1201684  -1.6030750
   0.5092759  -0.5553663   0.1992207  -0.1930756   0.1554856   0.0606683
   0.1644494  -0.0602527   0.4050103  -0.2815514  -0.3558936  -0.5421281
   0.0133253  -0.1505467  -0.0650776  -0.5204516   0.0111481  -0.2660258
  -0.7452993  -0.6150177   0.3219962   0.2376208   0.2186467   0.0462106
   0.2704982  -0.2619039  -0.6833495   0.5111778   0.2666827   0.3148055
   0.1320954   0.1822156   0.0272365   1.0701509   0.6201067  -0.0930568
  -0.2746544   0.4359239   0.1276830  -0.0086783   0.1955400  -0.2376851
  -0.3534113  -1.2413772  -0.4533061   0.9612793   0.4175374  -0.1641303
  -0.4363465   0.1381129  -0.1472705   1.4335710  -0.3122242   0.4683595
  -1.2628381  -0.7032603   1.1592286  -0.0571506   0.1089752   0.0071428
  -1.2482839  -0.2875853   2.4092462   0.8696386  -0.0985039  -0.0669398
  -0.1732379  -0.0771031  -0.1173773  -1.1900560   0.2002016  -0.9170585
   0.3344155   0.1536754   0.9127795  -0.1592207  -0.0981054  -0.0499879
  -0.8082801   0.1438958   1.4250546   0.8934086   0.8764166   1.0797225
  -0.1414320  -0.0110884  -0.0383550   0.6322280   0.2339858  -1.0883197
  -0.4192784   0.2336174   0.7479314  -0.3584737  -0.2859570  -0.2507850
   1.3298491  -0.9578103  -0.9576244   0.5674123   0.4953777   0.3258865
  -0.0617065   0.0206557  -0.0173009  -1.0345045   0.3187083  -0.3652850
   0.3099065  -0.7348743  -1.6239520  -0.1654747  -0.1890693   0.0108121
  -1.9552090   0.5736753  -0.5184047   0.6937495  -1.2919517   0.1325373
  -0.1283622   0.3077272  -0.0348634   0.4867651   0.0046849  -0.9559504
   0.6967885   0.3247161   0.3116174   0.0675230  -0.1310637   0.1168326
   0.2426849  -1.9219942  -0.7673051   0.5100216   1.2999481   1.1391914
   0.1145266   0.0383709  -0.0268132  -0.4245486   0.4909749  -1.4545773
  -1.2917756   0.6040850   0.4575273   0.2978352   0.1015808   0.0808642
  -1.5332845  -0.4724803   0.1880635  -0.2236318   0.9366611   0.9981061
  -0.5347953  -0.2082002   0.0113349  -0.4270459  -0.7737833   0.2808522
   0.5483254  -0.7858993   0.9986821   0.0136969  -0.0619611  -0.0999863
  -0.5550677   1.1061878  -0.5522294   0.6428894  -0.2802173  -1.3376731
   0.2778200  -0.0937810  -0.0527052  -0.7040749   0.0978868   0.4611404
  -0.5148493   0.6604013   1.5199708   0.2037972   0.1072648   0.3539222
   0.6685159   0.0313349  -0.0167318  -0.8232297  -0.4116696  -0.7968357
  -0.2925660  -0.0307434  -0.1277794  -1.8195468  -0.1929328   0.5827296
   0.5798622   0.7095804   0.1687620   0.0574767  -0.1018803  -0.2896811
   0.7887224   0.7399622   0.4434412  -0.2164529  -0.5776882   0.4498739
  -0.3816734  -0.0541158  -0.2547927   0.5375023  -0.2092395  -0.0402819
   0.7203143  -0.6069742   0.5537282  -0.0541654   0.0035921   0.0709195
   0.9576122   0.3699190  -0.6334367  -1.7809384   1.8676751   0.1560956
  -0.0284494   0.1220397   0.3240842   0.0274742   2.1372628   1.0385833
  -0.9454392  -0.3360243  -0.0547187   0.0284035   0.1720397   0.0471064
   1.9909829   0.3339479   0.9294913   1.3245916   0.1191892  -0.0755764
   0.0495944   0.1839154  -0.0810068   0.9298270   0.8276785   0.0300298
   0.1128530  -0.0676689  -1.2036958  -0.0421113   0.0105087   0.3497815
  -0.3619754   0.6170654  -0.4611282  -0.1064633  -0.6590540  -0.9891105
  -0.0218615  -0.2157436  -0.0036166  -0.4126104  -0.7876408  -0.3522451
  -0.1798643   1.4965851   0.7407380  -0.5128019   0.2640205  -0.0670419
  -1.3743508  -0.1575261   0.3050883  -0.9175233   1.3563442   0.8285158
   0.0824951   0.0150023   0.2964389   1.8208561  -0.3058048  -1.1675298
   0.7993334  -0.3073509   0.0136501   0.0048133   0.1834952  -0.3306891
   0.0634806   1.3141541  -0.3147864   0.3531194  -0.6504625   1.3280442
  -0.0761641  -0.2738867  -0.3632761   0.4293291   0.9114355  -0.5370317
  -0.8923573  -0.6131580   0.0331622  -0.0265147   0.0809900  -0.0445713
   1.0181210  -1.6461544   0.2954056   0.0639637  -1.6780293  -0.2267344
   0.3974552  -0.0444784   0.0371058   0.3826369   0.0683528  -0.3226511
  -0.5897796  -0.4899285   0.5136235  -0.2612504  -0.1784424   0.2093836
  -0.4711743  -1.2064338   0.4588967   1.9462779  -1.5687127  -0.9102255
   0.0230820  -0.3582728  -0.3188219  -0.1407174  -0.4096214   0.4264762
  -0.9183388  -0.3410203  -0.2885613   0.3573117  -0.1071421  -0.2499270
  -0.2329012   0.5045496   0.8872171  -0.5249960  -0.1798221  -0.5001184
  -0.4081687  -0.0288758   0.0211000   0.3681327   0.8302966   0.8072716
   0.2744189  -1.2246438   0.0032467  -0.0946310   0.1121660  -0.3200860
   1.1187842  -1.1072692   0.8018014  -1.4135050  -0.5458609  -0.3839994
   0.1029685  -0.2982612  -0.1252190  -0.3059797   1.0945594  -0.3317959
  -0.9942876  -0.4576698  -0.1546071   0.1174161   0.3964718   0.2076490
  -0.4746608  -1.7394046  -0.0958607   0.7509158   0.7271128   0.2457468
   0.0996511   0.0283685   0.1035319  -0.3546557  -0.7584838  -0.9007710
   0.3549420   0.1661096  -0.9312223   0.1679550  -0.2439291   0.1481370
  -1.0084152  -1.4085294  -0.1256914   0.1960202   0.6875306   0.2769867
   0.0203924   0.1862089  -0.2573773  -0.1702863   1.1806940  -0.9288127
   0.4341940  -0.7525589  -0.5075836   0.1272975   0.3371057  -0.3058971
   0.1410670  -0.2485119  -0.7351791  -0.6914678  -0.1176217  -0.8996753
   0.0082537   0.1084914   0.0136106   0.8927066   0.7997454   1.0018620
  -0.2559461   1.4881587   1.4259170  -0.1011406   0.4012756  -0.0283038
   0.7830082  -0.1286864  -0.6402915   0.2612832   0.0412616   0.3761373
  -0.0877750  -0.2946024  -0.3526253   0.2677987  -0.8858678  -1.0767316
  -0.7237197   1.7278191  -0.7368892   0.0051152   0.1796346  -0.2422227
   0.4167736  -0.4689799   0.4956219  -0.9331390  -0.3146405  -0.7990209
   0.0640060   0.1970473   0.0581642   0.0979600  -0.6304046   1.0563782
  -0.3905981   0.6304128  -0.3558596  -0.0469822   0.0859816   0.1289638
   0.0867988  -0.6038380  -0.7573844   1.8675230   0.5807098  -1.1471134
   0.3036883   0.0245975   0.0725850   0.2569039  -0.3563435   0.6321752
  -0.0200595   0.6210964   1.4014344   0.0223291  -0.1703960  -0.0222451
   1.0500020   0.3009045   0.9328655   0.9263566   0.7981992   0.1545795
  -0.0242331  -0.2935859   0.0241382  -2.1811006  -1.6629573   0.2576698
   0.5589461  -0.1038021  -0.0609585   0.2640637  -0.0115136  -0.1698073
   0.3915564  -0.5036806   1.6129887   0.6689299  -1.0296574  -1.0968350
   0.0048999   0.1074867  -0.2949188  -0.1686982  -1.2811137   0.0649553
   0.5196786   0.8638864   0.4040944  -0.1370290   0.0007789   0.1912477
  -0.1441644   0.1919635   0.7618973  -0.4698365   1.0478072   0.3605256
   0.0545319   0.0183717  -0.0367337   0.1899022   0.2003554   0.1171459
   0.6841094   0.0970756   0.7009833  -0.0616659   0.0772734  -0.1564441
  -1.4114872  -0.6350051  -0.1982903   0.7781289   0.0892857  -0.7635324
   0.2298947  -0.5616538   0.0114868  -0.8336498  -0.5947712  -1.1105323
   0.1210027  -0.1202198   0.1455090  -0.0922561   0.0225397  -0.1913518
   0.0940306   0.3313222  -0.5453343   1.5533342   0.1966179   0.2666733
   0.2666354   0.1338601  -0.1194268   0.1909862   0.8316807   0.0561504
  -1.0071783  -0.0156288   1.0692816  -0.2807171  -0.0644781   0.0226125
   1.0426590   0.9474406   1.4256499  -1.5211582  -0.8833742  -0.4864767
  -0.1031329  -0.2377560   0.1917929  -0.1612012   0.5060655  -0.9337757
   0.1712027  -1.1195625   0.5321013  -0.1482292   0.2111528  -0.1327686
  -1.4389386   0.4945329   0.2625814   0.2455616  -0.8501113   1.1359262
   0.0102427  -0.0652771   0.3693362   0.1947884   0.3663185  -1.0848801
  -0.9120893  -0.9940301  -0.6374331   0.0696753   0.0612711  -0.0063931
   0.6816224  -0.4977969  -1.3280523   1.3744217   0.8965005   1.0186579
   0.3179114  -0.2526144   0.0178258   0.8561277   0.2624737   0.4008166
   0.8461393  -0.3433701   0.2715222  -0.1943080  -0.3838544   0.1425719
   0.3932988   1.3942206   0.7202022  -0.0616371   0.7865295  -1.2652531
  -0.1584724  -0.2460375  -0.0667108  -0.4577362  -0.4035864   0.0076739
  -0.5962436   0.4608548  -0.7963988  -0.2492340   0.0256724  -0.0407323
  -0.6696601  -0.0152971   0.3630908  -0.7949705  -0.3891087   1.8716091
   0.3355935  -0.0305675   0.5406301   0.1205043  -0.6659093   0.2436258
   1.3564632  -2.0468585  -0.0954221   0.0467244   0.0938548   0.0129738
  -0.1548651  -0.2168822   0.4957305  -0.0985493  -0.6997244   1.1044728
  -0.1790582   0.0850216   0.0156760  -0.5461021   0.4557543   0.0920813
   0.5794342  -1.1394163   0.2554975   0.1913497  -0.0104815   0.0019165
   1.0429573  -1.2873837  -1.4577496  -1.5316182  -0.8421356   0.1332501
   0.1036999  -0.1897515   0.1677354  -0.1026983   1.1767873  -0.2385200
   0.7461640   0.1068719   0.9804875  -0.1202238   0.0835913  -0.0817453
  -1.7422765   0.2769701   0.2173412  -0.6398239  -1.6174591   0.9058421
   0.1597145  -0.2992067   0.1689405   1.2293062  -2.2765033   0.6121449
   0.3747832  -0.0842526   1.4833870   0.1770747   0.0290878   0.0708055
   0.7541032   0.6972694  -0.0184396  -0.0775673  -0.3764620  -0.0503763
   0.3906997  -0.2192677   0.0974994  -1.1671543  -0.3200746   1.6262702
   1.2214817   0.4240737  -0.7470450   0.0090843   0.1834219   0.2904598
   0.7800202   0.1958831  -0.7604231   0.7040531   0.5957790  -0.1304577
  -0.0354712  -0.2558335  -0.2300795   1.7240127  -0.7236054   0.8764794
  -1.8085498   0.9947947  -1.2353225   0.1054273   0.1295412  -0.1665097
  -0.7876213  -0.1328344  -0.3025140   0.8785323  -0.6532218  -0.9224951
   0.3384652   0.3093559   0.2605975  -0.4704528  -1.0054767  -0.4237812
  -0.3538962   0.3492547   0.7019312   0.0071404   0.0740026   0.1397470
   0.0587268   0.5005589   0.5148597  -0.9272527  -0.3617611   1.4082705
   0.0332814  -0.0808186  -0.0349964  -0.3160261   0.3173064   1.3663484
   0.6931050   0.5819327  -0.4047975   0.3287754   0.4337904  -0.0141463
   0.2310843   0.3631425   0.9777463  -1.8586092  -0.5321609   0.7699302
   0.1043846  -0.1420077  -0.3127440  -0.6809505  -0.0389831  -0.4023527
   1.7573639  -0.8707221  -0.1736887   0.4223303   0.0320001   0.3634111
   0.0554492  -0.1454296  -0.2390358  -1.0746235   0.8847759   0.3097254
   0.2184894   0.1717788  -0.0384498  -2.1102352   0.0135529  -1.0690973
  -0.0622925   0.8897685   1.7764229   0.3058247   0.0299854   0.2493202
   0.3195665  -0.2820777  -0.4220492  -0.6799983  -0.6174269   1.7888969
   0.0895156   0.2272648  -0.1223473  -1.4055327  -1.1883870  -0.2559769
   0.3767501   0.2255988   0.0434191  -0.1377566  -0.2677005   0.0178646
   1.0180764   0.5110782   0.1654754   0.5534119  -0.4195567   0.0839158
   0.2702738  -0.1579239  -0.0218436   0.4525023  -0.7325125  -1.5008622
   0.3882577  -1.1257846   1.2226787  -0.0065107  -0.1325529  -0.0526776
   0.4186906   0.3617240  -0.2796023   0.5571903  -0.3203859  -0.0554561
  -0.0121863  -0.0546174  -0.1243306  -0.8336889  -0.3298813  -0.6671073
   0.5289342   0.7095613   0.0915978   0.2173144  -0.0659728  -0.0616701
   0.0043010   0.1865443   1.3059845  -0.2966884   0.8082120   1.2476439
  -0.3420156  -0.2006415   0.3283338  -0.0346730   1.0946708   0.3537874
   0.2521505  -0.8980484   0.1327342   0.0898970  -0.0395859  -0.0233874
   0.3034157  -0.4997444  -0.1266542  -0.5323502   0.2012995  -0.6544796
   0.0649766   0.0664891  -0.0594046  -0.3604004  -1.5837675   0.5922266
   1.3471193   0.0679094  -1.1491541   0.0589372  -0.3293817  -0.3685527
   1.1580495  -0.3996335  -0.1222937   0.3297254   0.0182968  -1.0484810
   0.3268611  -0.1483400  -0.1513900   0.0926580  -0.1856494  -0.6419241
  -1.5212276   0.5997119   0.4450509   0.1882236   0.2536094   0.0895688
   0.8031909  -0.5486880   0.9921599   0.5899936   0.6733353   0.2168737
  -0.0439846  -0.0517470   0.0022719   0.3213685  -0.6515586   0.3512735
  -0.5719516   0.9779951  -0.1348824  -0.1356592  -0.1236459  -0.1954018
   1.4718744  -0.1907072  -0.2606700  -0.4678854  -0.2660525  -0.0758199
   0.1133492  -0.2317104  -0.2999516  -0.4570069   0.2596947  -0.3133786
   0.5474365   0.8288593   0.3475792   0.1229971  -0.0724204   0.1828884
   0.5677893  -1.1399415   0.0253296  -1.1651434   0.1468732   1.2260171
  -0.1427409  -0.1236634   0.0505034   0.1558964  -0.2896576   0.2741648
  -0.1588941   0.4475876   1.3378862  -0.1274576   0.0920462   0.0309258
  -0.8308372  -1.0800915   0.2079745   1.6674674   0.7493201   0.7596296
   0.6144433   0.1964683   0.0777249   0.1693217  -0.8409821   0.5293387
  -1.8334284   1.6485326  -0.3932420  -0.0425726   0.1197737  -0.4082589
   1.0351360   0.5658323   1.1442529  -1.1517769   0.5620007  -0.4179498
   0.0460181   0.0207997  -0.1657811   1.3711731   0.4548096   0.6021503
  -0.9616047  -0.0651777  -0.1169955   0.0337842   0.1977595   0.0490657
   1.0630484   1.5906181   0.5779557  -0.4620936   1.3676585   0.0903007
   0.0322508  -0.4530614   0.1072130   0.5654411  -1.0723381   0.6481587
   0.3144263  -0.8390992  -1.0604609   0.0057218   0.3519083   0.1164989
   0.4451489   1.0907657  -0.7626544  -0.1334571   0.7448239  -0.5303512
   0.0836582   0.2263772  -0.1709206  -0.5723057  -0.9240873  -1.2034359
   0.2081490  -0.6162630   0.0890137  -0.1383153  -0.0354679   0.2384135
  -0.5227817  -0.7621443   0.9031205   1.3784412  -2.0989285  -0.2302347
  -0.1863234  -0.2513609  -0.2353970  -0.9247196  -1.2431295  -1.1504713
   1.7703607  -0.0185354  -0.1790992   0.0766457  -0.0618118  -0.1657855
   0.5710691   0.1841477   1.2719907  -1.4974205  -0.0952241   0.9237686
  -0.1888421   0.4733839  -0.0743536  -0.6920275   0.6686860  -1.2303951
   2.0625968   1.0994056   0.4798449  -0.2004027   0.1018668  -0.3241948
   0.1256395   0.2232270  -0.2967027   0.9883467  -0.0593224  -1.2915748
  -0.1483869  -0.1672629   0.3841144   0.3877223   0.7445116   0.1758244
   0.9494531   1.6994874  -0.3895466   0.0932649  -0.1864066   0.0302472
  -0.6359665  -0.3159826   0.5249540  -1.0274571  -0.8893674  -1.1266943
  -0.1220690   0.1508864   0.2179532   0.6099916  -0.8833162   1.3083436
  -0.8394691   0.6898413  -1.5283159  -0.3930462   0.1563116   0.0184903
   0.0318421   0.6994746  -0.0582383   0.5467286   1.1722215   0.8242443
   0.2231588   0.0201166   0.1552458   1.2917682  -0.2153828  -0.5547779
   0.2776139   0.3903929   0.2591031  -0.1884397  -0.2454962  -0.2249298
  -0.2325770   0.2437249  -0.6787123   0.6179578  -0.2478344   0.2983914
   0.0354895   0.2040802   0.0343213  -0.1708990   0.5280694   0.2861653
  -0.1955128  -0.8317851  -0.0294270   0.0682094   0.2461631   0.0048049
   0.4880602  -0.4591211   0.3307796   0.9737352   0.3159349   1.2648115
   0.0047773   0.0557310   0.0781453   0.0230567  -0.7315093  -1.0009868
  -0.5170522  -0.2617276  -0.3867746   0.0490093   0.3730863  -0.1092006
  -1.5292211   0.6085778   1.3579518   0.8286359  -0.5409630  -2.3010497
  -0.0682879   0.3816767   0.2953022  -1.2901623   0.3259436  -1.3797636
  -0.3311054  -0.5018507  -0.7689231  -0.2852097  -0.0408650  -0.1810471
  -0.4024798   0.7865726   0.4519669  -0.5106525   0.6188303  -0.8077495
   0.0148713   0.0643222   0.1796821   0.2812391  -0.4602516   1.4568641
   1.3752916  -0.4980428  -0.8509743  -0.0055057   0.0283893   0.1899395
  -0.3640137   1.1848052  -0.5548810   1.2081845   0.4453578  -0.5269331
  -0.4124776   0.1883717  -0.2086547   0.4586017   1.9838078  -0.5364171
  -0.5811925   0.4527326   0.2309191  -0.3580694  -0.4522870   0.2534887
  -0.6407968   1.3752526   0.7455618   0.0149122   0.1396289   2.1105003
   0.1905905  -0.1590594   0.1396125   1.4311342   0.5969065  -0.5255898
  -0.3417414   0.1471784  -1.1025113   0.1220220   0.0553965   0.1103647
   0.4230288   0.0345836   0.2980796   0.8354258   0.2043351   0.6834464
   0.3073083  -0.2491883  -0.1122106  -1.1012043   0.3292778   0.9522524
   0.8016574   0.0710584  -1.4836109  -0.1157031  -0.1143570  -0.1652804
   1.1983052  -0.9340402   1.3798659   1.4592903  -1.6505963  -0.7144921
   0.0862963  -0.0608736  -0.1221539   0.1525176   0.0306082  -0.4140059
  -0.2873999   0.1593602  -0.4712072  -0.0256600  -0.1870582   0.2684039
  -0.1285907  -0.3843042   1.1601367  -1.1256179   1.9886066  -0.0924399
  -0.3424431   0.0379288   0.0819222   0.4372095  -0.4098941   0.9705768
   1.4422923  -0.0658342  -1.1044124   0.1050918   0.1958355  -0.2630205
   1.2616024   0.2806760  -0.1820446   0.4439684  -0.6374871   0.2412148
   0.0063309   0.2297923  -0.0578314   1.3595310  -0.5396386  -0.1913493
  -0.4663055   0.7454090   0.5862392  -0.2325320  -0.2933134   0.0249157
  -0.6327747   0.4417976   0.7159724   0.8170431   0.7326998   0.3897249
  -0.6828663  -0.5434729  -0.2904163  -0.3807721   0.4084405  -0.3275070
   1.0293682  -0.1538231   1.8732553  -0.0388118  -0.0011635   0.3259800
   0.3233774   0.4974114  -0.4899557   0.5934584  -0.1172727  -0.6914364
   0.1065917   0.2164257   0.0087691   0.0731119  -0.2970801  -0.2273765
  -0.4287916   0.7487737  -0.8892078   0.1443216  -0.1571364   0.1890854
   0.0811867  -0.0542989  -0.0810413   1.0482066  -2.0222185   0.4614632
   0.1445914  -0.3290392   0.0636425   0.3960206   0.1964120   0.6293486
   1.1284393  -1.9628803  -1.5077614   0.2849780  -0.0863479  -0.1106136
  -0.6838636   0.6752565   0.2846870   0.2245423   0.7504175   0.0194722
  -0.0296218  -0.2149383   0.1016333   0.3615312  -0.8880429  -0.2257767
  -1.2208567  -0.2046590   0.8014239  -0.0407482   0.0558432  -0.0628957
   0.4594687  -0.8750368  -1.5296301   0.4505729   0.0500871   0.0694265
  -0.2840304   0.2684700  -0.3747237   0.0919311  -1.5811040  -0.6951211
   0.4787940   0.4681108   0.0163010  -0.0790608  -0.0222908  -0.1173286
  -0.4129356   1.1275797   0.6198261  -0.2285085   0.3228041  -0.8806137
   0.1013842  -0.0985721  -0.1661760  -0.2807879  -0.8497722   0.2688856
  -0.4718491   0.2060087   1.2483559  -0.3237045  -0.4102960   0.5608190
   0.9689273   0.1532059  -1.4567521  -0.5674092  -0.6887558  -0.5591778
  -0.1233192   0.0114716  -0.0422773  -2.0856805   0.8764907  -0.4350833
  -0.8247041  -1.2909409   0.3034121  -0.1193004   0.0549643   0.0346855
  -0.3436734   0.7473112  -0.1068481  -1.5915231  -0.2891631   0.6008996
  -0.0703697   0.3852326  -0.1019973   0.2929223  -1.1618551  -0.7047378
  -0.1228328  -1.0550282   1.0600917  -0.1311657   0.3271078   0.0203288
  -0.2834599   0.2519161  -1.5569389  -0.3975450  -0.8777477   0.2952742
  -0.0378794  -0.1048582   0.0503287   0.5791388   0.7003176   0.0465140
   0.7527527   0.3899830   1.2272542  -0.2604161  -0.0248795   0.1516993
   0.9763512  -0.3411046   1.2800120  -0.6534566  -0.5235531   0.0638595
  -0.0185474  -0.1623449  -0.0102934   0.1481460  -1.1568482   1.1151006
  -2.0108399   0.8215828   0.5165630   0.2046185   0.2026031  -0.1855021
   0.5763590  -0.8395152   0.1594400   0.6858725  -1.6115562  -0.5096294
   0.0687576   0.1049981  -0.3358427   0.5666386  -0.8944196   0.4002176
  -0.9494362   0.9301599  -0.5368958  -0.2400069   0.2040931   0.2331847
   0.5813939  -0.2515315   1.4244484  -2.3068900  -0.7435321  -0.6229037
  -0.1354196   0.1612314  -0.0068577  -0.8253077   0.0377972  -0.4081601
  -1.0279859   0.3673452   0.6114114  -0.2633033   0.0359176   0.2657012
   0.1064959  -0.2443331   0.8722897   0.2726378   1.1119000   0.7065874
  -0.0930230   0.1753911   0.0595601  -1.0366656  -0.7489728  -0.9241150
  -0.1417761  -0.0298995  -1.3271539   0.2219187   0.1552515   0.1250781
  -1.9241477   1.8165995  -1.0794924  -0.0825303   0.4207065  -1.2477667
   0.1353634  -0.0682285  -0.0002485   0.3013124  -0.7854795   0.6184177
   0.1184655   0.2734381  -0.2284463  -0.2132769   0.1614244  -0.0024744
  -0.8659043  -0.9553603  -0.3155070  -1.5801642   0.0754786   0.2592120
  -0.0071213   0.3182829   0.4288760   1.2308009  -1.2237960  -0.0452596
   0.2389667   0.1705275   0.2753356   0.3676412  -0.0130035   0.0468346
  -1.1102989   0.6028860  -0.4305336  -1.2088815  -0.6575616   0.3376866
  -0.0157931   0.0923715   0.1019807  -1.4133238   0.1020326   1.2192676
  -0.1044320   0.1807006   1.1251884   0.3065116  -0.1503953   0.1205487
   1.7917825  -0.9944078   0.9831591  -1.2296355   0.1125326   2.3170452
  -0.0399813   0.1369683   0.1321509  -1.3456556   0.6025198   1.3894190
  -0.2007077   1.4464313   0.0658304   0.2305527  -0.1052883   0.2799377
  -0.1899154  -0.3780200  -0.6411331  -0.6980805  -0.4358138   0.0796372
   0.1266680  -0.2234567   0.0476035  -0.0929043   0.5036977   0.4306654
   0.9226421   1.5558420   0.2493430   0.0207215  -0.1983307   0.3443843
  -0.4848518  -1.2288305  -0.2964789  -0.2705542  -0.7883005  -0.3586830
  -0.0165921   0.2255415  -0.0719309   0.7888668  -0.5367366  -0.4720442
  -1.1032016   0.7545502   0.5020245   0.0504005   0.1341186  -0.1438935
   1.2116282   1.8066033  -1.2839717   0.5688698   0.9274410  -1.4061477
  -0.0643576   0.0933953   0.0930676  -0.0251040   0.3855014   0.4177780
   0.1787014  -0.3293991   0.7602490   0.0729720  -0.1326736   0.2085143
  -0.9545702   1.3471341   0.5077953   0.2725767   0.5695015  -0.5317258
   0.0195604  -0.0980157   0.0384366   0.6447055   0.9299508   0.8785699
  -0.0753742  -0.1102532  -0.1398699  -0.1418088   0.0085485  -0.1047895
   1.7761399  -0.7359539   0.1857594   0.2722074  -0.2382019   0.1371474
   0.1804000   0.3366252   0.0810652   0.0900290  -1.5864078  -0.4045170
  -0.1146681   0.3114948   0.3442989  -0.3719331   0.0620155  -0.0494402
   1.3316188  -0.8876745   0.9681346   0.5597726  -0.3183703  -0.8770127
  -0.0098794   0.1634057  -0.1799877   1.0491265   0.2035659   0.3170891
  -0.5956016   0.2078632  -1.1191649   0.2044465  -0.1049420  -0.1619550
   1.0041696   0.5490072  -0.5247225   0.9590979  -0.5143415   0.3143794
   0.1123004   0.0720454  -0.3451223   0.4144168   0.0220082   0.9979076
   0.3596509  -1.0458318   0.0402150   0.1213140   0.1577681   0.1191481
   0.4181322   0.2199916  -0.9185017   0.0305164  -0.5044178  -0.8101110
   0.2333852  -0.2626599   0.1339283   1.0532798   0.2555968  -0.0378615
   0.6253374   0.8056367  -1.2311957  -0.0273427   0.1061376   0.1840179
  -0.4976293  -0.2153540   0.7692264  -0.5102280  -0.5827056  -2.4241302
  -0.1276759   0.0380907  -0.1355660   0.5990900   0.5036075   1.1859308
  -0.7774459  -0.4037845  -0.1974495  -0.0539653   0.0986319   0.2918980
   0.5814212  -0.4897114   0.5556972  -0.4260497  -1.5685173   0.3117659
   0.3060396   0.0928176   0.1313537   0.6169173  -0.2870328   1.4232435
   0.0370734  -0.8497965  -0.1826092  -0.1499118  -0.2568997   0.0670409
  -0.2648084  -0.5569057  -0.9460730   0.7173082  -1.8000790  -0.8764115
  -0.0546341  -0.2746454  -0.1792177   0.8230265   0.6631905   0.4193673
  -0.1250711   0.7897251  -0.6431527  -0.0447046  -0.0605898   0.3613407
   0.0152873  -0.2231069   0.9386512  -0.5277587   1.3458784  -0.0257693
   0.2648949  -0.1819352  -0.0222655  -0.3528007  -1.0109764  -0.4923437
  -0.4431851   1.1629651   0.1373015  -0.3599588  -0.0203194  -0.0643353
  -0.4744040  -0.9998878  -0.4352605   0.9076038   0.1799636   0.5377588
   0.0036306   0.0347916   0.0755858   0.7706726   0.5963205  -0.1087120
   0.5281822  -1.9111301  -1.0821463   0.1037716   0.1052838  -0.1936292
   0.0266039   0.8956910  -0.3813564   1.0726664  -1.0211825   0.5861802
   0.1935969   0.0936723  -0.1198702   0.4926773   0.4324794   0.8722718
  -0.3161465  -0.6445788  -0.2215494  -0.1253408  -0.0679935   0.1343273
  -0.8624003  -0.2150994  -0.0855237  -0.3340677  -1.4354194   0.5587133
  -0.0186690   0.3525782  -0.0102840   0.9312301  -0.4638453  -0.9843649
   0.4146903  -1.0296576  -0.7816972  -0.4907301   0.3475569   0.3710058
  -0.1423733   0.6674637  -0.6169947   0.0665491   0.6680912  -1.2634581
   0.5804591   0.0305745   0.2431408   0.9184995   0.0492871   1.4998707
  -0.8038045  -0.4022378  -1.5664594  -0.1047201   0.2866328   0.0066224
   0.0006023  -0.7418016  -0.5388569   1.4380602   0.3620427   0.4388098
   0.3722956   0.0473541  -0.1086351   1.3062490   0.4686119  -0.1596008
  -0.8736944  -0.5057723  -0.7563226  -0.2298978   0.0042190  -0.1096786
  -0.4318252  -0.4401734  -0.2638040   0.1204689  -1.0213510   1.2016193
  -0.4148485   0.2046843  -0.1103350  -0.7081153   0.4949536   0.4831279
  -0.3481736  -0.7290024   1.2310456  -0.0726689   0.1901866  -0.2605532
  -1.3611550   1.2848058  -0.2891843  -0.2639897  -0.5598062  -0.2880611
   0.1194614  -0.1335346   0.1922037  -1.2739029   0.8241179  -0.5720677
   0.3396388  -0.2308377  -0.0695111  -0.1227012  -0.1611046   0.1491394
  -0.0965431  -0.4406141   0.6764951   0.0585359   0.1726243   0.9838299
   0.2013496  -0.2093433   0.0366064  -0.5024648   0.6612735   0.2119368
  -0.0504257   0.7981110   0.9363733  -0.1526651   0.0760122  -0.2251437
   0.3813112  -0.3027844   0.7269377   0.4657568  -0.7418552  -1.0664490
   0.1975784  -0.1337684   0.0195811  -0.3784903  -1.1229919   0.1487400
   0.1021996   1.1637594   0.8233133  -0.1034263  -0.2056353   0.0684330
   0.1469079  -0.2240581   1.6710771   0.3967392  -1.1171442  -0.4290549
   0.1654453   0.0665973   0.0191396   0.7187621  -0.3040005  -0.4298939
   1.6725255   0.3165761  -1.3103130   0.0520732  -0.0023287  -0.0819201
  -0.3810878  -1.2767625  -0.5911062   1.2010939  -0.0547201  -0.2187634
   0.0461774  -0.2461037  -0.0639100  -0.8381466   0.6054025  -0.5513467
  -0.9692561   0.2410873   0.7388409   0.0545201   0.3609025   0.0031995
   1.9877396  -0.9144686  -1.9093999  -0.7468995   1.0488753  -0.2300844
   0.2678985  -0.1699807   0.4573935  -0.0950978  -0.5693163   1.3069667
  -0.6966920   0.0527052   0.8878304  -0.0443721  -0.2582979   0.0702467
  -0.6862156  -1.1494550   0.3897632   0.2925474   0.5707588  -0.4528289
  -0.1949030   0.2352893  -0.2272283   0.5734091  -0.0030207  -0.0679859
   0.7686036   0.8535084  -0.0026651  -0.2265588  -0.1079227  -0.2521211
  -0.4772694   0.7018899  -0.1657621   0.7167789  -0.4703250  -1.3599193
  -0.2209718   0.1952929  -0.2222516   1.8803419   0.0557493  -0.0500457
   0.1652381   0.3762527  -0.3860249  -0.1626295   0.1052553  -0.0647319
   1.3039720  -0.2455945  -0.1536100  -1.8925307   0.2752172   1.2000161
   0.1446028  -0.0906533  -0.0216249  -0.6065732   0.8792768   1.0556910
  -0.5629159  -1.8173724  -1.3164399   0.0094955  -0.4218169  -0.1489148
   0.0699965  -0.5957902  -0.9045105  -0.3525131  -1.4477322   1.0514379
   0.1173490  -0.1059961   0.1053673  -0.5754748   0.0182205   1.4971992
   0.2812473   0.7565994   0.6133162  -0.3682407   0.0836569   0.2101073
   1.0187980  -1.1322306   0.1151522   0.1556659   0.1189923   0.4167980
   0.2070041   0.0939461   0.1036203  -1.3711066  -0.4585933   0.3218836
  -1.0252613  -0.6759862  -0.1129664   0.2727629   0.0864393  -0.0678857
   1.3403859  -1.0284861  -0.4450528  -1.5188527   1.0458928  -0.8058352
  -0.0057231   0.2197877  -0.0268872  -0.3942752  -0.3266050   0.1369397
   1.0392684  -0.8421932   0.4269380  -0.2853146  -0.1857764  -0.5493228
  -0.2553408   0.4119153   0.6456051   0.1633260  -0.0096836  -0.4109086
   0.1394314  -0.1091509   0.0311022   0.4651961   1.0870247   0.6223818
   0.1550119   0.5121468   0.2294453   0.0598303   0.2302370  -0.0601173
  -0.5438310  -0.4769106  -0.5890236  -1.1761682   0.8193117  -0.9791145
  -0.2119176  -0.1397701   0.2239351  -0.3137221   0.7078435   0.1666031
   1.7036418  -2.2355790   0.9680831   0.0397560  -0.1287668   0.1448419
   1.6059501  -0.8478243   0.7799284  -0.0315620   0.6182707  -0.3837323
  -0.1115919  -0.0471407   0.1277907   0.0021521  -0.4523167   0.3023883
   0.2676121  -1.0055252  -1.2705091  -0.0208847   0.1512245  -0.1727524
  -0.4820899  -0.2914773   0.5597845   0.7944322  -0.6907282   1.3253723
  -0.0406553   0.1134679   0.2463780  -0.3390224  -0.1955339   0.4561583
  -0.2880594  -1.1753724   0.7007577   0.0525837  -0.0353429   0.0870474
   1.7776160  -0.3368656   0.4605699  -0.7454422   0.5704672  -0.6814411
   0.1802700  -0.1420527  -0.0567026   0.0823895  -0.2575352  -0.2925822
   0.0812560  -0.1950381  -0.7135717  -0.0609747  -0.0586317   0.6107203
   0.5158653  -0.5413940   0.7943946  -0.0142579   0.8957582   0.3210749
   0.0837091  -0.0362468  -0.2247673   0.3503075  -0.4018021   0.4422458
  -0.8857919   0.4130096   1.7407463  -0.2096670  -0.0077330  -0.0182520
  -0.1883428   0.6525751  -0.5548490  -0.7335786   2.0606623   0.6488828
  -0.0056513  -0.2350467   0.1240184   0.5012895   0.5784314   0.7909271
   0.0546505   0.0299512  -1.1532391   0.1698921   0.0552438  -0.0153139
  -0.4472774  -0.2443206   0.4464166   0.8212062  -0.2892243   0.5313163
  -0.0258084  -0.1826517  -0.3413034   0.6651853  -0.9853042  -0.0581880
  -0.2385513   0.0839941   0.4526141  -0.2895363  -0.2247725   0.2981712
  -0.4333529  -0.1648521   0.4448541   0.2972219  -0.6203307  -0.7676375
  -0.1197142  -0.0879299   0.1071223  -0.0571874   0.2103477   1.7152351
  -0.1415298  -0.3225893  -0.2273722   0.0883192   0.1745899   0.1851696
  -0.3792615  -0.1212361   0.4831528  -1.0965412  -0.1383119  -0.3775308
  -0.0368743  -0.0329632  -0.3602574  -0.5470055  -0.5044390  -1.1778861
   0.0502786  -0.8500111  -0.2821761   0.0780591  -0.1298584   0.2282672
   0.1033380  -0.2207935   0.0389410   0.3982902   0.3291242  -0.8347651
  -0.1339124   0.1315137  -0.3263669  -0.7536488   0.9048566   1.3489624
   1.1074561  -0.6569576   0.1067282   0.2385172   0.0113462  -0.0899218
  -0.7242180   0.1690262  -0.1980165   0.6768930   0.5776026  -0.0895218
  -0.2136916  -0.1884037  -0.3517589  -0.3212535  -1.2262621   0.7662289
  -0.2226305   1.2723821  -0.2798099  -0.1455932   0.1008348  -0.3520740
   0.7194548   0.1932726  -1.0761924  -0.4211429   1.0321087  -0.9805267
   0.1457806  -0.0601826  -0.1606541  -1.2194713  -0.4425450   0.8827057
  -0.2113636  -0.1337882   0.8177849  -0.1530661   0.1217589   0.0095393
  -0.4096437   0.0495939   0.2842996   0.3645097  -0.8256370   1.6418525
   0.0511362   0.1629972  -0.0352365   1.0976468   0.6126398   0.1231219
   0.0863735  -1.2952112   0.0626495  -0.1840402  -0.2600423  -0.2819258
  -0.8150406   0.1889424   0.2479301  -0.6427916  -0.5089372  -0.4051884
  -0.2247398   0.1614665  -0.3461522  -0.5445160  -0.5090312  -0.7203003
   0.8938261   1.4507219  -0.6934762  -0.1668552  -0.1244156   0.1480696
  -0.0777837  -0.4178559   0.0777154   1.8251976  -0.1288107  -0.0622109
  -0.2222369  -0.2068601  -0.0539871   0.6729104   1.9451007  -0.7334845
  -1.1574841  -0.5561402   0.0856964  -0.2227962   0.1431621  -0.3267640
  -0.0995255   1.9900013  -0.4981335   0.7685508  -0.2371994   1.3921818
  -0.0434821   0.1388932   0.1254077   0.0047065  -0.1255824   0.2200872
   1.8191051  -0.1959591  -0.2455351  -0.0864400   0.0587722   0.2938882
   1.2070669  -1.0199032   0.6074296   0.3875066   0.1207620  -0.1829517
  -0.0076088   0.0224732   0.0366657  -0.3683383  -0.1603966   0.4649990
  -0.4577187   1.1717517   0.9766484   0.4453871   0.0459069   0.2326777
  -0.3513637  -0.5898510  -0.2058450  -0.9697985  -0.2470226  -0.9756437
   0.1029210  -0.0091869   0.0609772  -0.1995547  -0.9588481   0.5439496
   0.8317643   1.3240464  -1.1600831  -0.0271254  -0.2658913  -0.2774653
  -0.1986223   1.5742460   0.0536590  -0.7107866   0.8574881  -1.2322924
   0.0682501   0.1300116   0.1964797  -1.8001049   0.4861796   1.9340522
   0.3771490  -0.5242597   0.4264821   0.2441841  -0.1417979   0.0831897
   0.3041792  -0.4843191   0.5393170  -1.1262689   0.2709782  -0.4528906
  -0.3992958   0.4462578   0.0554371   0.1265217  -0.1419418  -0.4956381
  -0.6328218  -0.5880494   0.2105175   0.2522978   0.1688042   0.1014808
   0.4028743   0.1488755  -0.3269722   1.4293247  -0.6109819   0.4646396
   0.3270866  -0.2038569   0.1523034   0.0205803   0.9287192   0.0475882
  -1.0286381  -0.3809392   0.8061716   0.1812125   0.0339481   0.2810375
  -0.0004248   1.4639598  -0.9481544   1.0885513   0.7880454  -0.0545318
   0.1940888   0.1151976  -0.0325650  -0.6114014   0.2146157  -1.2995725
   1.1832539  -0.0628594   1.0967542   0.0933191  -0.0724307  -0.0996927
  -0.9204267   1.3152356  -0.5795895  -0.5576153  -0.9977134   0.1858115
   0.3318577   0.0047385  -0.0284831   1.7514583  -0.0894783   1.4398235
  -0.1618087  -1.9368410   0.1883548   0.1715169  -0.1930757   0.2692013
  -0.1045160   0.2854387   0.8565906   0.0724818   1.2151207  -0.2863550
   0.0264840   0.1257834   0.2701296   0.7095016   1.0399834   1.9334215
   0.2850227  -0.3072581  -1.9708704   0.2379051   0.1511099  -0.0790244
   1.3625402   0.8680094   0.5601128  -0.2433163  -1.1600251  -0.8020188
  -0.2330654   0.0581829   0.1421736   0.1485419   0.2562517  -1.0260854
  -0.2284066  -0.2252704   0.5860031  -0.0635436  -0.1366042  -0.5058329
  -0.7425861  -0.4648991   0.1436740  -0.1937775   1.3126431   0.3144953
   0.1979332  -0.0879078   0.0213856   1.2090740  -0.1350905   1.1253247
   0.4705496  -0.1699355   1.1943733  -0.1159498   0.1200111  -0.1648730
   0.3382048   0.1985447  -0.5513189  -1.3517647   1.0286149   0.2216528
   0.0744556   0.1153325  -0.2316400  -0.3255592  -0.8780769  -1.2052147
   0.2587989  -0.0620444  -0.2408075   0.0911815   0.0069213  -0.5197250
  -0.2028446   0.4166931   0.6105771  -1.9216851  -1.9321104   0.8143985
   0.3186143  -0.1152667   0.0072327  -0.0552783  -0.3117897  -1.0290226
   0.3276312  -1.5490180  -0.6005233  -0.1385705  -0.0770388  -0.2249099
   1.2113123  -0.4090275  -0.8001481  -0.4108736   0.5383903  -0.7464426
  -0.0259873  -0.1578460   0.1867009   0.1958844  -0.8084604   0.6820362
  -1.6064091   0.4785389   0.1379574  -0.1964694  -0.0633575  -0.0109844
   0.2601572   0.3389737   1.1337817  -0.2081341   0.1065962   0.5339819
   0.0543912   0.1727993  -0.0649123  -1.2052407  -0.1907617  -0.9860708
  -0.0340033   0.1220286   0.2978926  -0.3793446   0.3024368  -0.4101321
   0.4783272   0.5475252  -0.3733501  -0.3971992   0.3249463  -0.2380974
  -0.0985866  -0.0997275  -0.1084412  -1.0345478  -0.5412465   0.3301927
  -1.0743206  -1.2583202   0.0131052   0.0039868   0.2949772  -0.0544956
  -0.6380011  -1.3890674  -0.8033827   1.0354868  -0.5660149  -0.3740396
  -0.3588161  -0.0936659   0.1476565   0.4783698  -1.0620816   0.2333291
   0.4250397  -0.2506351   0.0974670   0.3457294   0.0490734   0.0108449
   1.1386755  -0.6929367  -0.2479449   0.7780632   1.3042513   1.1056842
  -0.1429862  -0.0338804   0.0353506   1.3263562   0.7954963  -0.7958327
   0.5732640  -0.8258405  -0.7560633   0.0697254  -0.2589172  -0.1924442
   0.7890795   0.2509947   0.1736832   0.9283044  -0.3174540  -0.2027466
   0.0985532   0.3312835   0.0894365  -1.0728259  -0.1827677  -1.0569801
   0.0070986  -0.9955308  -1.4075708  -0.1594931   0.2233366  -0.0994095
   0.1569812  -0.1864261   0.5654996  -0.6982075   0.8758275   0.5281944
   0.2392152  -0.0908267   0.0733645   0.0629347  -0.0033948  -0.0800655
   0.2992952  -0.8184466   0.7825942   0.3119541   0.2222375   0.1152390
   0.6563253  -0.2175700  -1.3187706  -1.4481719  -0.3771780  -1.6835587
   0.3277877  -0.0586738  -0.2703463   0.8354316  -0.3083327  -0.2010972
   0.6931775   0.8325322   1.6017405   0.0779494   0.0580630  -0.0917246
  -0.2490085   0.0609896  -0.0292148   0.2091929   0.1501961   1.1123629
  -0.1487002   0.1777569  -0.0083345  -1.9094106   0.6182697  -0.0839464
  -0.5926787   0.1915852   0.0031244   0.2194858   0.1968039  -0.2647213
  -0.0263811  -0.4119356   0.4520410   0.5223759   0.4292778   0.4146779
  -0.0844150  -0.2147435   0.1377605  -0.8776288  -0.7386416   0.6056035
  -0.3122337  -0.8466300  -0.1441923  -0.2616820   0.5266850  -0.0195731
   0.9385694   0.3046415   0.4545600  -1.0367358   0.7196597  -0.1552807
   0.0075365  -0.1094121   0.1419071   0.8847789  -1.3411784  -1.2559143
  -0.5595074  -1.3171866  -0.1291451   0.0974509   0.2276126   0.1355621
  -1.0061923  -1.6084495  -0.7776091   0.6261100   0.1034865  -1.0511683
  -0.1138182  -0.0458934   0.0101277  -0.0516470  -0.5000653   0.2195308
  -1.0547010  -0.2065799   0.7964302   0.4698310   0.0561728   0.1465161
   0.3409966   0.3474620   0.4600648   0.5650565  -0.8178191  -0.0880520
  -0.0647036  -0.0119754   0.0930691  -1.0666691  -1.3566931  -0.5130036
   1.2174259  -0.6414494   0.2804422   0.0398873  -0.0574161   0.3487465
   1.6969652   1.6321497  -0.4180091   0.2424590   1.0574161  -0.7199375
   0.0989103   0.3819903  -0.1112446   0.0809437  -0.8212957  -0.0685588
  -0.8312635  -1.7821558   0.6466314  -0.3244566  -0.2182629  -0.0633714
   0.0379783   1.3599192  -1.1108632  -0.0994990  -0.3123663   1.2951558
  -0.1571307  -0.0613244   0.1574134  -1.0487543  -0.3620376   0.7071364
  -0.5466853  -1.5120482  -0.5666075   0.2518245   0.0150944  -0.1212227
   0.1805430  -0.1742876  -0.0988358   0.0885980   0.3156001   0.8942751
  -0.1181258  -0.0108781   0.3645857   0.5490123   0.1413528   0.8059446
  -0.1863734   0.0537101  -0.8129359  -0.1451761   0.0742005  -0.1012685
   0.1275029  -0.6790348  -0.5297178   0.8936532   0.7644874  -1.0366167
   0.1267577  -0.0534532   0.0474353  -0.8160567   2.0550914   0.1716913
   0.5862313  -0.7012120  -0.1107711   0.0213342   0.1214650  -0.0949751
  -0.7353278  -0.2067567  -0.4603685  -1.2049457  -0.2811365   0.7851149
   0.0322516   0.3506660   0.0404863   1.1824002  -0.2197234  -0.1490432
   0.2341719  -0.1451003  -0.1866234  -0.1722332   0.0820373   0.1003506
   1.2744508  -0.1993312   1.1457013  -0.7355979  -0.9815721  -0.3747466
   0.0807952   0.1244609  -0.4341918   0.6002435  -0.2317458  -0.4916781
   1.2559639   1.0994431   1.4684391   0.1186055  -0.0613468   0.1715379
  -0.6599954  -0.6337404  -0.5280849   1.6303440   1.0105550  -0.1239811
  -0.1071821   0.0918091  -0.0042937   0.7390947  -0.3754801   1.4856261
   0.6486050  -0.2903664  -0.1710033  -0.1833861   0.4715523  -0.5158623
  -1.2784804   0.5215852   0.2071023  -0.3359348  -0.2688591  -0.1958476
   0.2403952   0.2126813  -0.2411182  -0.5836233  -0.7887955   0.1060547
   0.7294264  -0.6092712  -1.3197955   0.0821153  -0.2531582  -0.0212009
  -0.6797506   1.5138962  -1.2061301   0.0055258  -0.9358022  -1.3580360
  -0.0710306  -0.1551777  -0.0165039   0.0023394  -0.0487163   0.0659183
  -0.3070417   0.3006464  -0.3786338   0.2101595  -0.2348922  -0.3633673
   1.1039132  -1.9374790  -0.3559676  -1.8601804   0.9605596  -0.5790600
  -0.0952663   0.3530534   0.0916082   1.9595799   0.4836593  -0.2310646
   1.0560397   0.0757407   1.2104716   0.0933923   0.1215230  -0.0712987
  -0.0234161  -1.5368731   0.9133243  -0.6049220  -0.0132729   0.1795052
  -0.1159844   0.3112819  -0.2252143  -0.0411782   0.5633891  -0.1234604
  -0.9035671  -0.1128688   1.0973350  -0.2723137  -0.3114678  -0.1371128
   0.2187832  -0.8032657   2.1925948   0.8942621  -0.0891264  -0.5024797
   0.2984695  -0.0286687  -0.1229611  -0.6642311   2.1296194  -0.2665682
   0.8178194   0.7138680  -1.0777296   0.0598620  -0.2344034  -0.1096383
   0.1604163  -0.3675123  -0.9808963  -1.4172862  -0.2539391  -0.6879320
  -0.1146652   0.2507459   0.0889128  -0.1575090  -0.7730062   0.5597311
   0.6433709   0.4701173   1.6967244  -0.2512460  -0.0089852  -0.0898878
  -1.1798823   0.2900773  -0.0342710  -0.6762018   0.1336425   0.7157792
  -0.0209718   0.0638095   0.2355056   0.2221276  -0.2853655   0.5786424
   0.1940670   0.0583954  -0.0955458   0.1544380   0.0399604   0.0608588
   0.7068382   1.5403180  -0.9039865   0.7475685  -1.0511943   0.0372390
   0.3030142  -0.0826683  -0.2175695   0.4804250  -0.7151243  -0.3482574
  -0.2300534   0.7046852  -0.1622301  -0.0079885   0.3111247   0.3044215
   0.1173588   0.1367173   1.7393819   0.3813068  -0.6368955  -0.3866783
  -0.2113943  -0.3331114   0.0175134  -0.7567361  -0.5348924  -0.7637247
   1.1435019   0.0980602  -0.1179620   0.1203165  -0.2405308  -0.1843115
  -1.6820544  -0.4162129  -0.5598629   0.5776048  -0.5079234  -0.5349456
  -0.2249851   0.1193754   0.1015605   1.1304609   0.2905679  -0.8076430
  -0.1240853  -0.1238124  -0.9041745  -0.2187061  -0.0613678   0.0350623
  -0.7102914   1.1270891  -0.2487673  -0.0244659   1.8793046  -0.3428658
   0.0703107  -0.1786948  -0.1493357  -0.0299105  -0.2265327  -0.8945902
  -0.6662556  -0.0998009  -0.4119282   0.0569696  -0.0496841   0.0686281
  -0.2686550   0.4574891  -0.1323662  -0.3215002  -0.6952643   0.4665976
  -0.1407447   0.2467741   0.3321688   0.2016741  -0.4775500   0.7399994
   1.6621459  -0.1887339  -1.3114419  -0.1668618  -0.2012818  -0.0676836
   1.0131813  -0.5370402  -0.0222072   0.5316850  -1.9039583  -1.1376362
   0.0747810   0.1517115   0.0739278  -2.2992935   0.4744897  -0.1154106
   0.2764274  -2.4012313  -0.2234218  -0.0053355  -0.2336643   0.3861670
   1.4923224   0.4593263  -1.0343060  -0.3877964  -0.4488710   1.3832343
  -0.3406669  -0.1236865   0.1157025   0.5123705   0.9045420  -0.1098816
  -0.3744339   0.5718254   0.4760431   0.3215756  -0.0846868   0.0509155
   1.2579250  -0.2706662   0.7688964  -0.8711510  -0.6080880  -0.6749495
   0.2678345   0.2164129  -0.1166668  -0.6637045  -1.3144590   0.9944323
   0.3062959  -0.6388249  -0.0275924   0.1560692  -0.0116859  -0.3559929
  -1.0281986  -1.0445228   1.3559752   0.2113543  -0.7171159  -0.5448664
  -0.0322358   0.1875018  -0.3529273   0.2195909   0.2344530   1.2280762
  -0.5278481  -1.6829368  -0.0378437  -0.3646862  -0.2808621   0.4167067
  -0.4496846   0.2389508   1.0162582   0.3133820  -0.7922679   0.1663995
   0.1306254   0.2482884   0.1745515   0.7626528   0.0695703  -1.4150654
  -0.2426020  -0.7875593   0.9280715   0.1528043  -0.1975912  -0.1874284
   0.1877151  -0.0739671  -0.4668929   0.1893206   0.8974031  -0.7578079
  -0.0236542   0.0823505   0.0111412  -0.0432247  -1.6728053  -0.7561314
  -1.1015692  -0.1366021   1.0441048  -0.1786192  -0.1621511  -0.2265085
   0.8058481   0.6130754   0.1145816   2.1166074   0.0609229   0.4752333
   0.0602090  -0.1519936   0.1167613  -0.3684272   1.0905631  -0.9024960
   0.2875235   0.2127633  -0.5909849  -0.1966814  -0.1644807   0.1233222
   0.4434430  -1.0111588  -0.5299942   1.3073032  -0.6376801  -0.0904680
  -0.0995742  -0.1366400  -0.0279732  -0.3046164  -1.1677921  -0.5678796
  -1.6848464   1.8867295   0.8348436   0.0283003  -0.0342377  -0.1862204
  -1.4524299   0.7614702  -0.8914976  -0.6680670   0.1842407   1.4978483
  -0.2894237  -0.1565833  -0.0533324  -0.3277232  -0.1505143   1.0049320
   0.4444064   0.6547440  -0.4455982  -0.0156053   0.1404678   0.1816648
  -0.5869052   1.0524307   0.0719735   0.2125320  -0.8273959  -1.3820379
  -0.2850047  -0.1034170   0.0024121   0.4818217  -0.9971413   0.1591360
  -0.2551464  -0.0559718  -0.4748897   0.2091227  -0.1212987  -0.0572058
   0.3892154  -0.3537246   0.0770484  -0.4057187  -1.2469034  -0.4002817
   0.1669527  -0.1743619   0.0225628   0.5997570   0.5790832   0.3117055
   0.1294751   0.6083367  -0.0999643  -0.4430971   0.2025708  -0.0161696
  -0.2389229  -1.0282727   0.2617675  -1.1558112  -0.2406993   0.6440544
  -0.1532512  -0.0167017  -0.0336641  -0.3351316   1.1914798  -1.5380468
   0.6669930   1.8931521  -0.0188355  -0.0785910   0.1203417  -0.0791771
   0.5228332  -0.4783850   0.7000106   1.1291561   1.4407901   0.5770895
  -0.1942905   0.0077946   0.0679487   0.1432315   0.2288104  -0.4306105
  -1.6975065   0.1299538   0.6997855  -0.0402018   0.2325802   0.0442308
   0.4418397  -0.8531023  -0.1321043  -0.0648066   0.9526357  -0.4255805
  -0.0038357  -0.0243709  -0.0890248  -0.7014626  -0.8017734   1.2037096
   0.1005759  -1.7640235  -0.3772177  -0.3430147  -0.2407514   0.2056706
   0.6822082  -0.5864539   0.1932016   0.7522846   0.2941525   0.3968671
  -0.0301486  -0.0651288  -0.0079981  -0.1703398   0.8954383  -0.0330160
  -0.0891972   0.9207104   0.2994596   0.0662173   0.1369040  -0.4765191
  -0.1586346   0.2229957  -0.4491005  -0.1304524  -0.8111745   0.3102213
   0.5342553  -0.0899037  -0.2416471   0.1832305   1.1049160   1.1100036
  -0.6671236   1.1347047   1.0644044  -0.1082014  -0.1051534   0.1934986
   0.4213350  -2.1226768  -1.6049976   0.3748017  -1.1871427  -0.6766955
   0.0710007   0.1348618   0.0536382  -0.4970354   0.3301843   0.2214437
   0.1789093  -0.6455299   1.0513567  -0.1091913  -0.0667442   0.1917415
   0.7827972   0.8407099   0.1927123   0.2916044  -0.9151641  -1.1265365
   0.1176232  -0.2275843  -0.0276863   0.5057910   0.7066832   0.5548659
   0.2912993  -0.6957356   0.4257364  -0.0085309   0.1966066   0.0374414
   1.2241913  -0.2415041  -0.2001968   1.0967740   0.0548712  -1.1015198
  -0.2350969  -0.4152772  -0.2813286   0.5118652  -0.9224513  -0.4977933
  -0.2892578   1.9151593  -0.3310995  -0.0636242  -0.0823211   0.0613075
  -1.1631862  -0.7625312   0.3200331   0.2230781   0.2399973   0.5915601
  -0.3216343   0.0280233  -0.2023428   1.4556739  -0.9590330  -0.1211410
   0.8589001  -1.1605924  -0.5285797   0.1613249   0.2388241  -0.0159309
   0.6218098   0.1732540  -0.5671877  -1.5809534   0.7599079   0.5955120
   0.0918154  -0.2162378   0.0589350  -0.3584108  -1.1991482   0.0480270
   0.2789222  -0.2007287   0.4603704   0.2512689  -0.0700596   0.1743436
   0.1897961   0.6363293   0.2081486   0.2074181   0.6190995   0.3830855
  -0.2151178  -0.3525303  -0.0736656   0.7625677  -1.8508291   0.6137828
  -0.6978210   0.0695618   0.6164710   0.2051386  -0.0135056  -0.1151821
  -0.1457592   1.2197635   0.9123097  -0.3778133   0.3610460  -1.1272063
  -0.2301272  -0.4190902  -0.1329018   1.7328924  -1.6053530  -0.7631069
   0.0567023   1.1488153  -1.5030125  -0.1565802  -0.0415537   0.0767033
  -0.0620865   0.2871111   0.4205612   0.6582716  -0.0779339  -0.5202300
   0.1638151  -0.0844481  -0.0270261   0.2355122  -0.7512750   0.6120320
   0.5510426  -0.3434077   0.3670664  -0.0296515  -0.2674757   0.1557497
  -0.5747402  -0.4688604  -0.8975871  -0.8200366   0.0093822   1.4912900
  -0.1831432  -0.1711616  -0.1465442  -1.1262143  -0.9583579   0.0049483
   0.1599562   1.4806818  -0.1726017   0.0639406   0.0398389   0.3553107
  -0.0182340  -0.5865305   0.1763446   0.7947752  -1.3479356  -0.5101950
  -0.2718953  -0.0816264  -0.0380057   0.0402735  -0.5612485   0.2234655
   0.2530046   1.5916259   0.3602858   0.3960811   0.0553091  -0.0143968
   0.3311408  -0.2050264  -0.9418913  -0.4154338  -0.6951509   0.0775675
   0.0247328   0.1465831   0.0870615  -0.7595181  -0.0263758  -0.7718793
   1.8973280  -1.3010657  -0.9050434   0.3363176   0.0422595  -0.0567413
  -0.6525309   0.0442725  -0.3340575  -1.0306907  -0.8170382  -1.4808632
   0.0714929   0.1432199   0.0886980  -0.5502734   1.2452023  -0.7066353
  -0.0158971  -0.6415940  -0.0720818  -0.1457648  -0.1390532   0.2704621
   0.3150298  -0.3262253   0.3226976   0.7939196   0.5404688  -0.3243795
   0.1839754  -0.0251742   0.1540840  -1.6788311  -0.4573596   0.4595239
   0.4021088  -1.3295746   0.1452056   0.2300566   0.0828744  -0.1659654
  -0.0929834  -0.6698857  -1.0199778  -0.6045610  -1.1320500   0.3239196
   0.0913397   0.1588938   0.1650643  -0.9471900   0.0309004   0.6601621
   0.7472600  -0.1155699   0.7325498  -0.1113520   0.0853784  -0.2359633
   0.4931387   0.0970822  -0.5551250   0.3600281  -0.8836525  -1.0206110
  -0.0161786   0.2853407   0.0048958   0.8671989  -0.8241099   0.7764015
   0.1452313  -0.2259895   0.7734523  -0.3641502   0.3218658   0.1556085
   0.0612560  -0.2513425  -0.5687964  -0.9701924  -0.5892050   0.8901045
  -0.0860753   0.2786965   0.1083111  -0.7518434   0.7249919   0.4002006
   0.8039294  -0.4734787   2.0673702   0.1174358   0.0221141   0.3481075
  -0.5349866  -0.8722461  -0.0042926  -0.3423584   1.7666924   0.2524892
   0.1685908   0.1249974  -0.1540014  -0.6343911  -0.1298552   0.4440575
   1.2476133   0.4962032   0.4074812  -0.3133875  -0.1233780  -0.0821973
   1.0489789  -0.8020192  -0.6966910  -0.4637846   0.0518475   1.6811337
  -0.0146229  -0.1094760  -0.3700019  -0.5624417   0.4552404  -0.3111430
   1.6130707  -0.1930853   0.3922423   0.2653025  -0.0443292  -0.0456252
   0.1756722  -0.4814927   1.3492033  -0.0101268  -0.1605434  -0.3274896
  -0.0333280  -0.2432759   0.3794120  -0.2336216  -0.1476864  -0.5085381
   0.7648320  -0.8171552   0.3265224   0.0665257  -0.2332211   0.0434245
  -0.5118412  -0.4681481  -0.5755535  -0.0379306   0.1621767   1.6752862
   0.1746758  -0.1038402  -0.2815227   2.5926173   0.3137397   0.4258125
   0.3059252  -0.5580360   0.5427473   0.2306117  -0.0733560   0.1816472
   0.1276347   0.0998460  -0.7586304   0.3300474   0.9525179  -1.0605360
  -0.1857348  -0.2553022   0.2668404  -0.7520761   0.7855791  -1.3880457
   0.8881778  -0.1014748   0.3717774  -0.1139163   0.3080917   0.2332599
   1.7689662  -1.5003972  -0.0881166  -0.6124935   0.1982574   0.1956384
  -0.2514572  -0.3288724  -0.0511210  -0.6669054  -0.1175082  -0.9433377
  -1.0056636  -0.5594562  -0.3392681  -0.1745300  -0.0795185  -0.1174630
  -0.3550912   1.3544006   1.1391113   0.4579117   0.2274295  -0.7856188
   0.0426564   0.0391546   0.0015642   0.5356597  -0.1139601   0.1518020
   0.3351076  -0.3511617   0.9267370   0.0238406   0.0495394   0.2901511
  -2.3041613   1.0530399  -1.5069034  -0.8949544   1.0149739   0.8568599
   0.2752300  -0.1668164   0.0630694  -0.3102576   0.0839771   0.4111806
   0.9018348   0.2055235  -1.8357214   0.0831132  -0.0475491   0.0934615
  -0.8464543   0.6854840   0.3441363   0.0239776   0.4790974  -0.3795487
  -0.1556448  -0.0642537   0.2848097   1.3278803  -0.2330393  -0.2103167
  -0.3983915  -1.1158849   1.2553006  -0.0645562  -0.0608056   0.1002855
   1.1820364   1.0706130   0.2906229   0.5293509   0.8298170  -0.1847912
  -0.1869662  -0.1585199  -0.1662923   1.3933896  -1.5519990  -0.5453646
   1.1381301   0.4950389   0.5720818   0.0847612   0.0624712  -0.0409829
   0.3375094   0.4309541  -1.3028622   0.2376999  -0.6868929  -0.6911536
  -0.1878244   0.2430961  -0.1924831  -1.2288374  -0.1874460  -0.9668311
   0.2044159   0.2157281  -0.5547710   0.0961143  -0.0027652   0.1412444
  -0.1336041  -1.1739043  -0.2412488   0.1678563  -0.0828915  -0.1658140
  -0.0170056   0.0706858  -0.3017209  -0.9479362  -0.1283361  -0.1608907
   0.2607647   1.9769679   0.0626525   0.0894982  -0.2213656  -0.4494133
  -0.3824242  -0.4799791  -0.4006233  -1.7807641  -1.1052382  -0.2665231
  -0.1197742  -0.0122423  -0.2937042   1.7395123  -0.4781107  -0.2139561
   0.3078650   0.1689020   0.5872191   0.0806407   0.0591634   0.1446851
  -1.1480235   0.6232023  -0.3743984   0.5099927   0.8858235   0.3728147
  -0.1410971  -0.2185423  -0.4742631  -0.6664321   2.4822433  -0.9289017
   0.6682809  -0.3635363   0.2784728   0.2144613   0.0122943   0.2006619
  -0.2047658   0.4140625  -0.3309163  -1.1568397  -1.2557466  -0.8253739
   0.4277625  -0.1767638   0.2389423   0.0737977   0.4762888  -1.8887712
  -1.6582282  -1.2565043   0.8382593   0.0991403  -0.1894577  -0.0801904
   0.1945553   0.6433266   0.1938808   0.0854166   0.0177197   0.1970048
   0.1239373   0.3729031   0.1188585  -0.4430624   0.4265358  -0.7120254
  -0.6871144  -0.0743401  -0.0601185   0.0558929   0.5021425   0.2698332
   0.0728007  -1.0147444  -0.4525142  -1.3883071   0.0904946   1.0717050
   0.0921629   0.0460258  -0.1235399   0.9340609   1.0202150   0.6552884
  -1.1862805   1.4553562   0.3579429  -0.1216364  -0.1425342  -0.0998373
   0.8869691  -0.0930651   0.5395316   0.3451214  -0.1251507  -0.2068841
   0.0199294   0.1046528  -0.1040348   0.5155219   0.4441805  -0.8342450
   1.1873915   0.0950058   0.9422247  -0.0789069   0.0747673   0.1132989
  -0.4164219   0.4900208  -1.6609106   0.1502534  -0.2220444  -0.1881381
  -0.2227572  -0.0659542   0.4960524  -0.0563757  -0.7071730   1.2432356
  -0.0900199  -0.3882273  -0.1566682   0.2590594   0.0023683  -0.2838453
   1.2741218  -0.0369434   0.1081569  -0.6568397  -0.3082345  -0.4773046
   0.1419239  -0.0276221   0.1114161   0.1625064  -1.6794764  -0.0115569
   0.7431065  -1.0595572   0.8390623   0.0815458  -0.0069635  -0.3647108
  -0.4760803  -0.4308155   0.2815800  -1.4124674   0.3249443   0.8641455
  -0.0200283   0.2690526   0.3300521  -1.2077943  -0.7288839  -1.3626655
   0.5470148  -0.9438323  -0.3967198  -0.0617601  -0.1948135   0.1193503
  -0.2256111  -0.8556468   1.9759148  -1.0057296   0.3292854  -2.2368662
  -0.0350304  -0.0478116  -0.1629288   1.1167810  -0.2512330  -0.0785337
   0.3303193   0.4581123   0.2125099  -0.0907344  -0.0764652  -0.0611329
   0.4053429   0.6100872  -1.2121071   1.0709598   0.7059462   0.2305517
   0.2260787  -0.1143346   0.1401686  -0.0757927   0.0298651  -0.4107002
  -0.6092250  -0.6047269   0.9951934  -0.0803269  -0.1463535  -0.0252548
  -0.1492832  -0.5794007   0.2226354  -0.8181966   0.5444409  -0.2865491
  -0.0612970   0.1890232  -0.0601349  -0.9014952  -0.6812150   0.6792022
   0.5612683   0.6337405   1.0144137   0.0216075   0.1746169  -0.1917107
   0.0543845   1.0351113  -0.1548908   0.6372692  -0.2405015  -0.5590898
  -0.0628034   0.1680304  -0.2671064   0.9839857  -1.4203570   0.8861995
  -0.0756023   0.6421944   0.1342624  -0.2149883   0.2228969  -0.4476802
   0.7443233  -0.6135410  -0.5606734  -0.5216033   1.6359876   1.1542430
   0.1543919   0.4714208   0.2543676  -0.7390271  -0.1482679  -0.3741407
  -0.3160120   0.4079150   0.6336043  -0.0002993   0.0129695  -0.0980546
  -1.5449562   0.1170056  -0.5079674   0.6910480   0.1229046  -0.6249972
  -0.0788756  -0.1273278   0.1698298   2.1256161   1.2825967   0.1492259
  -0.7228667  -0.9562266  -0.8366016   0.0647104   0.1702621  -0.0937211
   1.4729184   0.1998404  -1.0543288   0.2547401  -0.5352277   0.9498448
  -0.3015499  -0.0891445  -0.1125478  -0.4196396   0.5137455  -1.9695286
   0.0564223   0.8265213  -0.9567018  -0.1141947   0.0415381   0.3011801
   0.7675620   0.5864935  -0.2654016   0.3247932   0.0835544  -0.4431518
  -0.0245197  -0.0822550  -0.1487229  -0.3422152   0.1440606   0.0989818
   0.5966111  -2.2997038   0.5309315   0.3037643  -0.0125255  -0.0790402
   0.1426573   0.7157560  -0.2594437  -0.3123082  -1.0693047  -0.0275473
   0.5193251   0.2793289  -0.0676919   1.0100472   0.4424228  -0.5174299
  -0.3286058   1.1925268   0.4930589  -0.3075261  -0.0251088  -0.0518362
   0.4011765  -0.7180842  -0.4389078   0.6086850   0.1272283   0.4111446
   0.0108321   0.0612088  -0.0957338   0.0243223  -0.7893097  -0.5219074
   0.8542603   0.0998919  -0.6301718  -0.0135234  -0.0879765  -0.0496354
   0.0755699   0.1910992  -0.1175974  -0.3024136  -0.6725022   0.6758918
  -0.1159380  -0.0673679   0.0099215  -0.7442142  -1.3688689  -0.8637481
  -0.9759229   0.5560822  -0.7474197   0.1032835  -0.0816595   0.1089741
   0.2094703   0.2864427  -0.6177548   0.3640313  -0.6834378   0.0626758
   0.1877594   0.1915635   0.1926450   1.0316533   0.4356087  -0.3023503
  -0.2193268  -0.6452789   0.3617646  -0.2228726   0.3043389   0.0781143
  -0.8270099   0.4280470   0.4997362  -0.2702003  -1.2899612  -0.2834739
   0.0689635   0.3454025  -0.0532356   1.2025664  -1.0316921  -0.5318758
  -0.8032992  -0.9273324  -0.3689077   0.1843678   0.0156454   0.0266433
  -0.6759884  -0.9036801   1.5979514  -0.4551848  -0.7827157   0.2707590
  -0.3231818  -0.1293425  -0.1409058  -0.5485948  -0.7289527  -0.8672057
  -1.0243746   1.0189698  -0.2106892  -0.1356999  -0.1685453   0.1147344
  -0.3257044  -0.4696378  -0.7371558  -0.8077629   0.3500423  -0.8840554
   0.3436039   0.1873325   0.0202811   0.0246486   0.6921341   0.4273779
  -0.0969878  -0.0560059  -0.3555349   0.0525683  -0.1369166  -0.1489465
   0.7814463   0.7779528  -0.0934281   0.5703145   0.8595507   0.4476996
   0.0306507   0.0186705   0.1921484   0.3353749  -1.0428036  -0.5723125
  -0.4996032   0.1203253  -0.5687792  -0.3050064   0.2388522   0.0701633
   0.4952069   0.9645016   1.0944330   0.6260670   1.1551282  -0.6894305
   0.0244798   0.1133199  -0.4518998   0.0924655  -0.3206675   0.2831456
   0.7489834  -0.0637659  -0.9260874  -0.0802722  -0.2128516  -0.0177434
   0.3443012   0.6098669  -0.3337673  -0.7198744  -0.8525117   1.5504156
  -0.0039520  -0.0793976  -0.5068335  -0.0087007   0.3396798  -0.0882575
   0.6789261   0.1377379  -0.7928271   0.2294319  -0.1628750   0.1064926
  -0.7391081   0.3587796  -0.3028760  -0.2938953   0.2920603   0.5412443
   0.3135836  -0.3059214  -0.0932134   0.2768637  -0.1451699   0.5393353
   0.3175140  -1.3086003  -0.6500478   0.1242874  -0.0018100   0.1111490
   0.2493169   1.1708007  -2.0053275  -0.1609203   0.2500552  -0.8084773
   0.0418501  -0.1236808  -0.1381575   0.1749874  -0.3996399   0.8288026
   0.3126472   0.4191331   0.0046344  -0.2128188  -0.0108041  -0.2966237
  -1.1897120  -0.7392118   0.3360738   0.6074595   0.1874051  -0.0100538
  -0.3050491   0.3744586   0.1574106  -2.1199274  -0.4480746   0.2566128
   2.4175782   0.2813537  -0.8909703  -0.1171641  -0.0143035  -0.1293667
  -0.7312787  -0.1167685  -0.0265886   0.5254731  -0.3188710  -0.7420204
   0.0292829   0.0798912   0.2582912   1.2500801  -0.3285549   0.8012561
  -0.0448766   0.1980623   0.5182667  -0.1816092  -0.2940346   0.0712029
   0.3459270   0.5784799   0.5067002  -0.3721264  -0.2313866   0.9099284
  -0.1450448   0.3012178  -0.2284259  -0.5323524  -0.9295107   0.2564788
   0.6671275   0.4459619  -1.5388674   0.1362204   0.1411236   0.2390927
   0.0520727   0.6723444   0.4450262   0.5610031   0.9151741   0.0031133
   0.1317492   0.1241798  -0.3596035   0.6300194   1.2711501   0.5736063
  -1.1224113   0.3380372  -0.4630532   0.0190239  -0.0866775  -0.1455137
   0.9035680   0.9227501  -1.3501366   0.2906147  -0.2962462   0.8897630
  -0.1962685   0.0456406   0.2149586  -0.5898376  -0.2787027   0.9389796
  -0.3216736  -0.0193271  -0.3778083   0.2506992   0.1146377   0.0365833
  -1.4189883   0.0044846   0.5279218  -0.8754269   0.2777922  -0.2193615
  -0.2314081  -0.0772188   0.0952069  -0.0715420   0.6161942  -0.2515309
   0.0679210   2.3288639  -1.3138204  -0.3194212  -0.0519288  -0.0488424
   0.6518197  -0.0514360  -1.1333059   0.3386518  -0.2869734  -0.4517463
   0.1420689  -0.1721444   0.2752945  -0.6067989  -1.0547708   0.1255251
  -0.2264339  -0.3567466   0.4125255   0.1361998  -0.3901494  -0.0851192
  -0.8238280  -0.3669093  -0.9885962   0.6687196  -0.1103632  -0.1989049
  -0.2075361  -0.0504327   0.1433918   1.5633373  -0.1726347   1.1317523
   0.7277960   1.5590131  -0.4881214  -0.1657718   0.1017798   0.1838855
  -0.7575678  -0.2875162  -1.0471157  -0.6730466  -0.7288553  -1.0818683
  -0.0686617   0.1538325   0.2897239   0.8968598  -0.8689270  -1.1087451
   0.3505327  -0.4008186  -0.7596697   0.3291253  -0.2365258   0.1430833
  -0.7914106  -0.3207062   0.5415897  -0.3240103   1.8859785  -0.4842582
  -0.0151577  -0.2198851   0.1636630  -0.1736628   0.6556525   1.1419710
   0.8913932  -1.1267618   0.5946071  -0.1232280   0.3146288  -0.0538079
  -0.1456086   0.1660564   0.3333845   1.3881851  -0.8772464   1.3056433
   0.1408534   0.0790802   0.2971720   0.2538942  -0.6619749  -0.0906068
   1.2343737  -1.0963243  -0.5515351  -0.1668884   0.1612225  -0.1438973
  -0.4380481  -2.0985193  -1.9134771   0.0706729  -1.0241845  -1.2023565
  -0.3658206   0.1313783  -0.0223512  -1.0711943   0.1393949  -0.4579542
   0.4596034  -0.8054287  -0.4976646  -0.0222184  -0.5627019  -0.1116014
  -0.8930889   0.3866112   0.7456750   0.7558362  -1.0193325  -0.2976064
   0.1719374   0.0632320  -0.1729053  -0.9905680   0.2998648   0.4991090
   0.6205260  -0.6304461  -0.9264828  -0.1657062  -0.0762722   0.1651434
   0.9853771   1.1598130   0.9476870  -0.9849431   0.1604775  -0.8714286
  -0.0677220   0.0804842   0.0140410   1.8817177   0.0515549  -0.2289279
   1.7579012   0.3468095   0.5542505   0.0582771   0.1332703   0.1088668
   1.2326980   0.8531386  -1.3194106  -0.6334460  -0.2462443  -0.1227168
  -0.2715794   0.1791318   0.0391860   0.8727157  -0.2349181   0.1872870
   0.5744082   0.4289272   0.8557714   0.4515835   0.1030155   0.0081049
  -0.2416527   0.6274179   0.8328100   1.3115613   0.5909466  -0.0057874
   0.4892962  -0.1359296   0.2132474  -0.7668376  -0.2844452  -0.1785131
  -0.3055347   1.0437427  -0.7129821   0.0650713  -0.0481632   0.1504248
   0.2677571  -1.2370535   0.2037947  -0.5920798  -0.5512638  -0.8257040
  -0.1750519   0.1734305   0.1192930  -1.0924666   0.5118079  -1.3977251
   0.8956843   0.7563673  -1.9423529   0.0521515  -0.1611037  -0.2314726
   1.2802259  -0.2209308   0.6123484   1.2654829  -0.1008893   0.3326331
   0.0539962  -0.0667027   0.0767610   0.2886275   0.8809133   0.6246265
   0.0114387   1.0455834   0.2244842   0.1854560   0.0914746   0.2596979
  -0.8874868  -0.4222698   0.1531927  -1.0716292   0.0358169  -1.3553562
  -0.1602000   0.2711495   0.1319190   0.1837337   0.8100262  -0.5670343
   1.9397149  -1.7802463  -0.1620096   0.1960219   0.1770365   0.0857890
   0.7391462  -0.5052286   1.7784256   0.4983590   1.1346892  -1.0217025
  -0.6702691  -0.2035870  -0.1159813   0.1779280  -0.4934266  -0.6635722
   0.2104785   0.3254023  -0.0263605  -0.3629541  -0.1701056   0.0390537
  -0.2987847  -0.5516692   0.5040886   1.0771774  -0.2286932   0.5875877
  -0.1376168  -0.3799353  -0.1762658  -0.0169569  -0.0295315   0.5454709
  -1.0889640   0.7122074  -1.4077457  -0.0466970   0.1927159   0.2641430
   0.7573390   0.5107116  -0.9167778  -0.5235164   0.0023035  -0.3733153
   0.2038980  -0.2941274   0.0401859   0.6852854   0.0467127  -0.9932880
   0.6181766  -0.4693081  -0.0016169  -0.2684116   0.0661804   0.1836669
   0.0956919  -1.6823282   0.2094436   0.5252604   0.1198684  -0.1129182
   0.2183193  -0.1301192   0.4568882  -0.3466605   1.0071276   1.3228970
  -0.7074911   0.4014684  -0.6705214   0.1901311   0.1589162  -0.1990448
   0.8237665  -0.1467957  -0.4681878  -0.6908895  -0.6607724  -0.0256653
  -0.0993120  -0.0746655  -0.1586456   1.5188826  -1.3561687  -1.3614316
  -0.1530487  -0.8490495   1.0312226  -0.1336645   0.1408428   0.2921587
  -1.1131411  -1.9538517  -0.5419809   0.1551182  -0.5574293  -0.4122224
  -0.3428902  -0.1018220  -0.0181145  -1.5509919  -0.0823536  -1.1641687
   0.0305291  -0.9958162  -1.3696494  -0.4085056  -0.1526363  -0.1550010
  -0.2450303  -0.3580363   0.5203676   0.1265090   0.7388609  -1.2561072
   0.1040688  -0.0566464   0.1166949  -0.5164940   0.8887625  -0.2902355
  -0.5652894   0.0085929  -1.6668383  -0.2747199   0.1316436   0.2433316
   0.8288817   0.4282806  -0.8825206   1.2214218  -0.8769482   0.2855122
  -0.1796703   0.1613705  -0.1396187   1.3671720  -0.7555290  -1.0031250
  -1.4312013  -0.7826574  -0.7515492   0.1333321   0.0031467  -0.1836590
  -0.7155884   1.7732024  -1.2965471  -0.3505789   0.0864850  -0.6513121
   0.1603115  -0.1057149   0.0166704  -0.7961485   1.1773362   1.0523818
  -0.2363299   1.2463986   0.2328968  -0.0554253   0.1726327  -0.5080717
  -0.6148214  -1.3739061  -0.2557981  -0.1327589   0.5086119  -0.3609988
   0.2256720   0.0379234   0.2632591  -0.4236693  -0.0109191   1.0408570
  -0.8679882   0.2382942  -1.2899038  -0.0716046   0.0594966  -0.2117552
  -0.0139486  -0.6320466   0.6007317   1.1655296  -0.5675124  -0.9299756
   0.0216643  -0.1692917   0.2824023   0.1974560   0.4481258   1.7719319
  -0.5657721   0.2302075  -0.9627796  -0.1641936   0.2298995  -0.2768643
   0.1465797  -1.1451709  -0.2437698   0.2330951  -0.6364776  -0.6245765
   0.0729741  -0.1364796   0.0119296  -0.6236798  -0.3786293  -0.9170057
  -0.5030830  -0.2849542   0.9046450  -0.2698921  -0.0484336   0.1884748
   0.9555644   0.1970301   0.5419410  -0.6182740  -1.1651760   0.8232698
  -0.1205403   0.2293042  -0.1138991   1.0532805  -1.5466616   0.3615733
  -0.8540736   0.2474191   1.5062795  -0.2110301  -0.0368063  -0.0452926
   0.1392023  -0.8201953  -1.1869961   0.1562844   0.9368196   0.3068791
  -0.0184322  -0.1202624   0.1972080   0.0859052   1.5695026   1.1660130
   0.5794038  -0.3132244  -1.6252303   0.1063675   0.0097939  -0.1197867
  -0.1186602  -1.2425917  -0.3974267   0.7415323   0.1583036  -0.9847907
   0.0160208   0.2060978  -0.0856868   0.7547555  -1.3130434  -0.2886063
  -0.3568183  -0.1840848   0.3001465  -0.1508008  -0.1382996   0.2362520
   0.6775140   0.5851165   0.2109861  -0.2839085  -0.8307549   0.8281803
  -0.0181137  -0.1909036  -0.0657492   0.6132392   0.4711792   0.0975863
  -0.7499674   0.6814509   1.0882334  -0.2908126  -0.3298723   0.1174720
  -0.0236360   0.3408333  -0.2411623  -1.0897325  -0.3387835  -0.8349587
   0.0731008  -0.0004068   0.1192261  -0.8315777   0.8855202  -0.9744834
  -0.2357992   0.2452379  -0.1052493   0.2024128   0.1611899   0.3121468
  -0.5235096  -0.6439652   0.0417615   0.6976383   0.7569785  -0.3726179
   0.1203233   0.1094220  -0.2206900  -0.9665046  -0.6324801   0.2604442
   0.0826086   0.7931694   0.8624098  -0.1495368  -0.2181133   0.3611370
   0.4800886   0.2038758  -0.0465267  -0.1682263   0.3381308  -0.7224715
  -0.0374109  -0.2865905   0.0201202   0.8044005  -1.2584347  -1.0954345
  -1.1221486  -0.1727550   0.1117134  -0.3225173   0.1378863   0.3533105
   0.5379084   0.5749083   0.7896203   0.4202540   0.2237297   0.8178073
   0.1673783  -0.1363442   0.2599181  -1.0120869   0.5006596   0.2032154
   0.3998191   0.1860505  -0.0789166  -0.2182293   0.1811861   0.0562030
   0.1319053   0.4151080  -1.1329316   0.0445339   0.6334044  -0.9144413
  -0.4016803   0.1309146   0.0033745   0.3441828  -0.1295189  -0.1260508
   0.3482653  -0.8935568  -0.2084450  -0.2074198   0.1884313   0.1586019
  -0.8233968  -0.5790575   0.3872667   1.1652145   0.0164465   0.5437027
   0.1226906  -0.0583471  -0.2423314   1.5613127   0.4669649   0.3972029
  -1.2141788  -0.4078472   0.1656369   0.4520681  -0.0391421   0.2174833
  -0.3214120   0.5494160   1.0144167  -0.0556343   0.3384643   0.0800409
   0.0422303   0.0300913   0.0690439  -1.0819658  -0.7657026  -0.1362610
  -1.0214553  -0.7488927  -0.5052606  -0.0888246  -0.0377624  -0.0250826
   0.6933766   0.5802659   0.2325815  -0.4649037  -0.0439435  -1.8242495
   0.0065006   0.1144826   0.2795744  -0.4602922   0.3850169  -0.2385410
   0.2455874  -0.4774890   0.0591683  -0.2574124   0.1149799   0.1440981
  -0.5901348  -0.2660301  -1.2247214   0.4425058   0.2008417   0.0114456
   0.0855937   0.1699277  -0.0881888  -0.1358622   0.8051050  -0.5556945
  -0.8797055  -0.8324015  -0.8074061  -0.1823222   0.0020131   0.1030781
  -0.0742418  -0.4305629  -0.2897802   1.1480333  -0.8440611  -1.0524169
  -0.2740456  -0.0593062   0.1320443   0.2851617  -0.7536248   1.1742394
   1.5773033  -0.7650997  -0.7494704  -0.1460891  -0.2816007   0.2143264
   0.3928361   1.7269723  -1.8772063   0.7603399  -0.7747115   1.9404018
   0.1093318   0.1181713  -0.4142327   0.9515664  -1.1151466  -0.6970172
   1.2656076   0.4440749   0.3071131  -0.1723682  -0.2406823   0.0710161
   0.7422365  -1.2040774   0.2625015   0.1776048  -0.8032933  -0.6020212
   0.1739147  -0.1105996  -0.1378672  -0.8298097   0.0350866  -0.0704086
   0.3188856  -0.1243149   0.6230579   0.0749536  -0.1699157   0.2138355
   0.5578281  -0.6263680  -0.0608868  -0.2308611  -0.1031893   0.9823734
   0.1975186  -0.4676241   0.4835261   0.3193692  -0.4734341  -0.3027672
   1.0615056   1.6198722  -0.3333654   0.0945760   0.2244584  -0.5391389
  -0.3406855  -1.2339613   0.4345263  -0.0112856  -0.7223380   1.3146224
  -0.1054349   0.4307252  -0.0116243   0.2397547  -1.2086387   0.1275157
  -0.4266065  -0.5905868   0.6508628   0.1081376   0.0104294   0.2729554
  -0.4121413   1.0593653  -1.4240822  -1.1347872  -0.2611496  -0.5238257
   0.0729924  -0.0458179  -0.2663827  -1.1499022  -0.0085091  -0.2998456
  -1.4885573  -0.3182807  -0.0958178   0.0099870  -0.4728136   0.1310642
  -0.3842382   1.0530163  -1.0123767   1.2980348   0.3938911  -0.1125915
  -0.0845490  -0.1155697   0.0357490  -1.3044343   0.6789587  -0.9057013
  -1.0451270  -0.6318939   0.1568856   0.1837269   0.1353665  -0.3099432
   0.1232807   0.6589818  -1.3484350   1.5023904  -0.9323112  -0.7000154
   0.0484720   0.1966601   0.1560685   0.9593344   0.5594978   0.8703152
  -1.6378927  -0.6598595   0.2607525   0.2553395  -0.1204764   0.2406323
  -0.4341972  -0.5171942  -0.6380040   0.2612492  -0.4204659  -1.0136834
   0.2890016   0.1414142  -0.1224582  -0.1484604  -0.2984639   0.3801687
   1.3840815  -0.4617582  -0.3273319   0.1398645  -0.1696886   0.0582420
   0.2070669   1.4622847  -1.0184226  -0.4366421  -0.6869755   0.8931978
   0.0460920  -0.1235975   0.1417740   0.4023691  -1.0838339   0.2491686
  -0.7967777  -0.0367306  -0.5829868   0.3520452  -0.3301920   0.1894414
  -0.4721265   0.2842021   0.0542396   1.0338873   0.0706304   0.5547641
   0.1347931  -0.1336420   0.2478445  -0.7356001  -0.8714725  -0.1012533
   0.6114320  -0.2120183   0.9272199   0.3632490  -0.0807628   0.2675368
   1.0261728   0.6517403   0.4216217  -0.1792747   1.4367110   0.5237560
  -0.1083734   0.0694531   0.3261221  -0.1236668  -0.4185571  -0.6170290
   0.1081507  -1.3091595  -1.2549888   0.1039938  -0.0312344  -0.0605680
   0.4008095   0.1076330  -0.9024747  -0.5270328  -0.8047842   0.4466231
   0.2251215   0.4975904  -0.3190388   0.4054042   1.9556578   1.1498266
  -0.6672377   0.5603626   0.1162504  -0.0531399  -0.0029737  -0.2749962
   1.2759004  -0.2770568  -0.2045866  -0.4276460   0.2343263   0.6917104
   0.2183014  -0.0903531   0.2790549  -1.0652812  -0.3965115  -0.8152038
   0.5954939   0.2735904   1.6882948  -0.3821789  -0.3736531  -0.0708015
   0.3330649   1.4910178   0.2183075  -0.5818588   1.0352776  -0.6574271
   0.1125614  -0.0114982  -0.1030124   0.0449167  -1.1395326   0.0278046
  -0.8616794  -1.0226830  -0.7029840   0.1445310  -0.1394025   0.0741050
  -0.2656322  -0.1694555  -0.9874492  -0.0593106  -0.5428322   1.3639814
  -0.0208749  -0.1995098  -0.0790198   0.9533908  -0.7107957   0.3676524
  -0.0926551   0.6379504   0.1332386   0.3641800  -0.0980244  -0.2075472
  -0.3435303  -0.5691506   0.2635038   0.5745538   0.1066582  -0.1731871
  -0.1494617   0.0498078  -0.3125508   0.0056227  -0.8002550  -0.2560843
  -0.0852383   0.2829701  -1.2846054  -0.1359917  -0.0457379   0.0378084
  -0.7086248   0.2267865  -0.1305269   0.0126283  -0.4520351  -0.1671213
  -0.0055858  -0.1176646  -0.3197077  -0.3380021  -0.3831246   0.5662093
   0.4886335   0.0635964   1.9542179   0.1729259   0.2439237   0.4496945
   0.5856601  -0.6496401   1.7818732  -0.4573300  -1.0354097  -0.0238619
   0.0588426  -0.1559253  -0.0315510  -0.8302950  -0.2699412  -0.4522610
   0.4632476  -0.0551373   0.9583009   0.0648529  -0.1403805   0.1663412
  -0.5153382  -0.3413751  -0.9964926   0.5692335   0.8584151   1.2120521
  -0.5304769   0.1092879  -0.2304695   0.1487725  -0.7508355  -0.7189187
  -0.0824459  -0.4658387   1.6708463   0.3233588   0.1232846   0.0445564
  -0.8541824   0.7119192  -0.9585363  -0.0479771  -0.1542690   1.9212933
   0.0619147  -0.0838558   0.2795936   0.8144892   1.0164307  -0.7371695
   0.8966650   0.4712492  -0.3363229  -0.1777174  -0.0402208  -0.2930920
  -0.0398387  -0.3233813   0.2429922   0.4728462  -0.4847684  -0.1402182
  -0.4792091   0.0305733   0.2661965  -0.6646227  -0.1197292   0.0070859
  -0.1940191  -0.8271579  -1.6931329   0.1181483   0.2366074  -0.0386308
  -0.4639360   0.7501625   1.0286620  -0.7090963  -0.0423697   1.1861151
  -0.1277275  -0.3128408  -0.1441696   0.7195404   0.9719750   0.0918283
  -1.6712464   1.5430124   0.5910599   0.2044912  -0.0746847  -0.1446417
   0.0698455   0.0636153   0.2510769  -0.1416976   0.2777202  -0.1090871
   0.1271331   0.3956219  -0.0877427   1.1152353  -0.1946940  -0.8912735
  -0.2011525   0.2160764   0.1956578  -0.0163825   0.1251708   0.1547970
  -1.9126586   0.1663136  -0.3455380  -0.6279451  -0.1909909  -0.5475331
   0.3537985  -0.3059292  -0.0203568  -0.3260802   0.0102891  -0.3618433
  -0.1759824  -0.1924647  -0.4296678   0.1367060   0.3510283  -0.0910528
  -0.9902093   0.8353024   0.6193598   0.8927448  -0.1282964   0.3816784
  -0.4334208  -0.0879056   0.3221528   0.2554970   2.4396889  -0.1310298
   0.5282639  -0.2552338   0.9551992  -0.0901130  -0.0330823   0.0480002
   1.5106966  -1.5037150  -1.2184145  -0.8962337  -1.3966055   0.3417147
  -0.1773546   0.1762540   0.2109683   0.9659663   0.0296457   0.8787385
   0.1995133   0.5248821   1.0869944   0.2282871   0.0798484   0.2684087
   0.3602192   0.6536315  -1.2681105  -0.5029275  -1.1769440   2.2837839
   0.1669942   0.2878375  -0.1645016   0.6514187  -1.7427860   0.4661653
   0.8644674  -0.3285962  -1.4287993  -0.0850115   0.2047113   0.1229321
  -0.4558960  -0.2179756  -0.0826772  -0.3183008  -0.2040852   0.0407918
  -0.0239142  -0.1580753   0.2068849   1.5411594  -0.3973916   0.7420148
   0.0137643  -0.1278758  -1.3318967   0.1830977  -0.3187740  -0.1974436
  -0.6939809   0.6833774   0.4680919   0.4315483  -0.2565059   1.1259258
  -0.0779094  -0.2901912   0.0318845  -0.2405152   1.1118279   1.3473871
   0.3404425   1.5583669   0.2970742  -0.0266404  -0.2630990  -0.0610521
  -1.3297904  -0.0131652   0.1232016  -0.1925344   0.6016700  -0.6072502
   0.3860938  -0.0539700  -0.0851926  -0.1976580  -1.0212363  -0.2104502
   0.1681622  -0.3045965   0.5587262   0.1419871  -0.0354484   0.0888087
  -0.7446826   0.4538540   0.4211812   0.7978845  -0.1449927  -0.1656686
   0.0155210  -0.1599809  -0.3977098  -0.1976076   0.9959230   0.1561293
   0.1349872   0.5545800   0.2451633  -0.1801984   0.2674915   0.0175774
  -0.9292247   1.1360285   1.0738806   0.6865214  -0.9709288   0.0932147
  -0.0731206   0.0837316  -0.0105040  -0.1618949  -1.0282328  -1.5615690
  -0.1508901  -0.4801041   0.1760181   0.1590986  -0.3038196  -0.1847068
  -1.6396323   0.1026289  -1.9291983   0.0954512   0.3698677   0.4164344
  -0.1135875   0.0296456   0.0948835   0.1529556   0.1250613   0.8060622
   0.7126760  -0.1327955   0.8774555  -0.0903694  -0.1157963  -0.0954127
  -1.2055674   1.1425036   0.5154881   1.1257185  -0.3517768   0.2368617
  -0.1555587   0.0665629   0.1765892   0.3469065  -0.0820663  -0.5967554
  -0.0317938  -0.8416177   0.5022595  -0.2003381  -0.2231783  -0.1807543
   0.9105602   0.1833912   0.1959336  -1.4353354  -1.1034479   0.2568577
  -0.0282563  -0.2586866  -0.0197191  -0.7335655  -0.7094603  -0.9876363
   0.2436565   1.3998607  -0.4164257   0.4083298   0.1780864   0.2674125
  -2.0953679  -0.9621505   0.5664302   2.3591356   1.8256450  -1.2458013
  -0.5574411  -0.0158873   0.0720879   0.0343786   1.3384372   0.6299980
  -1.5981500  -0.2498805  -0.6346330   0.0907244  -0.2409386   0.2032244
  -0.3086185  -0.0611712  -0.4773110  -0.8614852  -2.8565352  -0.1601883
  -0.0538261   0.0751422   0.1294123  -0.2511538   0.3504972   0.7210819
  -0.0752673   0.4319059  -0.8278651  -0.0707685  -0.1517798   0.0758660
  -0.2103423   0.3492121   0.2239284  -0.3446544   0.1934256  -1.0262073
  -0.1205061  -0.3205713  -0.3573878   0.5599485  -0.8322744  -0.3345223
  -0.0144916  -0.9135857   1.7704983   0.3741893  -0.0171627   0.1949876
   0.8875995  -0.7921432   0.6482994  -0.6568796   0.5642519   0.1652890
   0.1070548  -0.2284122   0.1782325  -0.9129584   0.4393519  -1.3070279
  -0.6664391  -1.2642825   1.3295108   0.0471861  -0.1600162   0.0244616
  -0.1441451  -0.4147109  -1.6112890   0.8778180   0.0232134   0.0971005
  -0.0945063  -0.1059865   0.0514466  -0.8987276  -1.3281631  -0.7159340
  -0.3723240  -0.0918821   0.6567100  -0.1723816  -0.1635303  -0.1084618
  -0.0540436   0.0508645  -0.4123386   1.6280375   0.0141263   0.0429101
  -0.2085728   0.0033304   0.2121282  -0.3278033   0.1446395  -0.5141968
  -0.3213499  -0.7747004  -0.4754796   0.1822631   0.1111760  -0.0651431
   0.6503616  -0.4782474   0.4330007  -0.9270441  -0.6208102  -0.9379893
   0.1609778  -0.2462793  -0.0026541  -1.1954551  -0.1638677  -0.4610216
   0.3128576  -0.2132655  -0.0840699   0.1581659  -0.2099247   0.0077705
  -0.3460541  -0.9144185  -0.6973941  -0.1801323  -0.9384344  -0.7211158
  -0.1732502  -0.0086318  -0.0978951   0.3489232   0.7334471   0.2254536
   0.0455531  -0.7538922   1.3059978   0.2155589  -0.1721627   0.0679885
  -1.1687465   1.2635007  -0.2290218   0.9997188  -1.7363648  -0.6733522
  -0.1082349  -0.0607693   0.0446945   1.8387247  -0.1327464  -1.2205727
   0.2387249  -0.9221466  -0.7430047  -0.1731231  -0.5084452  -0.0369052
   0.5460625   1.5741029  -0.1138935   1.2227734  -1.3640621   1.1100267
  -0.3000714  -0.0011737  -0.3873677  -0.7667963  -0.2541665   0.9893363
  -0.2095873  -0.1907629   1.4661279  -0.0407594   0.1503686  -0.1116385
  -0.3379566  -0.8510029   0.1177104  -0.2103104  -0.3011296  -0.7798179
  -0.1959627   0.2920170  -0.2615181   0.0547871  -0.0247732  -1.6783242
   0.2608892   0.7152634   0.6586545  -0.0424006  -0.0184599  -0.0679185
  -0.0968523   0.9817829   0.3295818   0.2378711   0.4482991   0.8301645
  -0.1668146  -0.0591794   0.1785805   0.6046117  -1.1258001  -0.6670028
   0.2574477  -0.5802516  -0.8471380   0.2457621   0.1800806   0.3462469
  -0.4745222   0.0560655   1.0623437  -0.2881147   0.3334105   0.2128762
  -0.3446234   0.1132305   0.0571491   0.2204755  -0.8199912  -0.0761685
   0.5496269  -0.4994751   0.5020369   0.0572056   0.1713657   0.2551233
  -0.4695802  -0.3657878  -1.1988648   1.1182605  -0.1130024   0.2765646
  -0.1773697  -0.0461767  -0.5761625  -0.7184630  -1.0266074  -0.2478517
   0.1335615  -0.0711700   0.5844222  -0.1192891   0.1801534   0.0873357
   0.1207565   1.4141610   1.4496219  -1.1648306  -0.1808787   0.1126923
   0.0344009  -0.0427379   0.3198800  -0.7535778  -0.1661094   1.3235935
   0.3921079   1.0361505   0.6668782   0.3457608  -0.1755594   0.1729473
  -0.2139642   0.9011424  -0.4422985   0.2131263   0.0580932  -0.2190761
   0.2116464  -0.2220317   0.0358266   0.2612532  -1.1441016   1.4082085
   1.4267151   0.0520267   0.3881400   0.0328025  -0.1398410   0.0095418
   0.5141718   0.1923007   0.4605304   0.6950418  -0.5675064  -0.6960856
   0.2827083   0.0316146   0.1592695  -0.8936676   0.0581874   0.1254895
  -0.6848654   0.7412216  -0.2508371  -0.0117507   0.1197088   0.1774244
   0.1874076   0.6671764  -0.5115023  -0.9319320  -1.2978495   0.4691730
  -0.5012931  -0.1261991  -0.3769031   1.4719850   0.9943094   0.8043139
   0.6754265  -0.5063104  -0.3634928   0.0556090   0.0692660   0.0700795
   0.5616758   1.1751103  -1.3635004  -0.4194556  -0.4061526   0.8643183
   0.4182815   0.0249295   0.3434482   0.7335495  -0.2633380   0.3615596
  -1.0634426   0.2436636  -0.1473136  -0.1367422   0.0928658   0.0392936
  -1.0670546   0.9010468   1.2598326  -0.3799984  -0.6922362   1.5087240
   0.3373506  -0.2295192   0.0553759  -0.5670304   0.5587497   0.5988301
   0.2057839  -0.5082670  -0.4168287  -0.0021602   0.2494720  -0.2783957
  -1.0785757  -0.1429079  -0.6110437   0.3366939  -0.0416665   0.1530350
  -0.2227877  -0.0921630   0.6763021  -0.0406044   0.1435886   0.0115608
   0.3824460   0.4406646   1.9011410   0.1234659  -0.1759705   0.2638558
  -0.3340940  -0.1587447   1.3175056   0.9792855   1.0218090  -0.3813213
   0.3727863   0.0535267  -0.1727541   0.4456873  -0.4787191  -0.5705428
   0.5709956   0.5644913   0.6782118   0.0381252  -0.0892648   0.1780068
  -0.1244918  -1.4253557   2.2668564   0.6441819   1.0258301  -0.3099914
  -0.3565996  -0.0669359  -0.0044847  -1.2672296  -0.6754268   1.5786958
   0.7238857   1.0428735   0.7020904  -0.1488604  -0.2234520  -0.0590204
  -1.7366610   0.9316847  -0.5921112  -0.9738904   0.6717682  -1.9920259
  -0.2661492   0.0029368   0.1856549  -0.3075364  -0.2131616   0.8648335
  -0.7376322  -0.0752157  -0.4782062  -0.0923012   0.0714537  -0.0514749
  -1.2201551   0.6619164  -1.9259225  -0.7854282   0.0741840   1.3868551
  -0.1468208   0.1939358  -0.1705938   1.0160128   0.1646871   0.0232990
  -2.0608110  -1.0513271  -0.1688054  -0.2288738   0.0251860  -0.0444464
   0.6702576  -0.3879202   0.2664955  -0.7911061  -1.0131490  -0.9532265
  -0.0742658  -0.1014628   0.1052638   0.0465132   0.3683313   0.8351715
  -0.2042822  -0.5781140  -1.3546749   0.0019165  -0.3399705  -0.0526101
   0.4452324  -0.2635480  -0.8019017   0.1681874  -0.0583075  -1.7300456
   0.1533271  -0.1174394  -0.2698620  -0.5888023  -1.1245519  -0.1349993
   0.7064099  -0.5874551  -1.0520195  -0.0830494  -0.0332385   0.1123831
   0.7589278   0.9445689   0.8389984  -0.1123708  -1.3703082  -1.0538954
  -0.2370593  -0.2582478   0.2014955  -0.1328135   0.2527761   1.4244759
   0.8386173  -0.0653261  -0.6297896   0.1172538  -0.2639139   0.0426522
  -0.0366752  -0.9708835  -0.8821383  -1.2494347   0.6857468   0.7459398
  -0.1245745  -0.0323598   0.0153702   1.0720086  -0.1199808   0.2995179
  -0.6462020  -1.4822971  -0.0841132  -0.1414717   0.0989837   0.1679326
   0.8788171   0.0638592   0.0254248  -0.7478026  -0.6835715  -1.0328723
  -0.0012510   0.4336686  -0.2769822  -1.7309375   0.2110158   0.1454889
  -0.1304809  -0.5247134   0.8338788   0.1104468   0.1549962  -0.0401007
  -0.5944263   0.0188004  -0.7928695   1.7723007   0.0728437  -0.4854079
   0.1628592   0.0457964   0.0761969   0.2218999   0.4105929  -0.9839421
   1.2698337  -0.3081227   0.0547624  -0.0641360  -0.0858764   0.0300200
   0.4639664  -0.4227726  -0.2143479   1.4437896  -0.2012876   0.7208944
   0.1842634  -0.0594511  -0.1501184  -0.2124892  -0.4678735  -0.3646081
  -0.3788158   1.3266338  -1.0092415  -0.0472417  -0.0167177   0.0848774
  -0.8501713   0.0675308   0.2826184  -0.5350254  -0.1867107   1.9118736
   0.2296930   0.0355904  -0.3788469   0.4861851   0.0564869   1.0377611
   0.3514040   0.6363953   0.3250158  -0.0134820   0.1336046  -0.2475373
  -0.3157507  -0.4374723  -0.0134977  -0.5251600   0.4257910  -0.2306674
  -0.2426438   0.4919621  -0.1387139  -0.9777238   0.4252568   0.0989041
  -0.6094000  -0.3515379  -0.0414791  -0.1014224  -0.0272030  -0.1454061
  -0.6835597   0.9761465   0.1482608  -1.0631387   0.1260534  -0.3719106
   0.0279016   0.1941812   0.2229187   1.1580153  -0.0082559   0.1867342
   0.0387799   0.7540140   0.8025699   0.0794752   0.1671047  -0.0780239
   0.7937655  -0.7515688  -1.1559615   0.1147375   1.1955643   0.1376880
   0.0516038   0.1408902  -0.2522958   0.3411643  -0.5481419  -1.2156075
  -1.1454076   0.2241311  -0.4415900  -0.0473368   0.0982564   0.0895198
  -0.8111339   1.9791250   0.1720797   0.5248475   0.6846139  -0.2056059
   0.2071362  -0.1571648   0.0269921   1.0006624   1.0016085   0.0158798
  -0.4592207   0.0572916  -0.1622608   0.0907834   0.2531233   0.1647042
  -1.2789928  -0.5877495   0.4161588   1.0416367  -0.4517443   1.1901513
   0.0003995  -0.0953387   0.3303776   0.8278893  -1.0794799   0.8597444
   0.3340475  -0.8762683  -0.0665602   0.1153326  -0.1742347   0.0669552
  -0.8501954   0.2673069  -0.5312295   0.2574997   1.3927516   1.1307951
   0.1754823  -0.0464899  -0.0398131   0.0372052  -0.3392425   0.9312094
  -0.3897060  -1.2815543   0.4011457  -0.1923199  -0.0131106   0.0457448
  -0.2698835  -0.0024996   0.1535436   0.4802369  -1.1004332  -0.1194879
  -0.0186952  -0.0118975  -0.1853003  -0.1600118  -0.8414953  -1.0487146
  -0.6306826  -0.2819989   1.0808831  -0.5225754   0.1362901   0.1381260
   0.0183997  -0.0687843  -0.2680584   0.5898968  -0.8298945  -0.1227046
   0.1743608  -0.2420870  -0.0345733  -0.1205767   0.1594263  -0.5501292
  -0.9995682   0.8615989  -0.8020214   0.2781015   0.0340526  -0.1851339
   0.7904819   0.6623162  -0.2112890   0.6632557  -0.0107456  -0.8123306
   0.0065629   0.2297566   0.0406046   0.8480394  -0.3067842  -0.3899238
  -0.0263160  -1.0033551  -0.8236386   0.0461681   0.0431953   0.2532696
  -1.0367708  -1.0670955   0.7310410   0.2416767  -0.8681924  -0.6113890
  -0.0957553   0.0807269  -0.2083365  -1.0136870   0.8653433   1.7093815
   0.7731770  -1.7766577  -1.3075619  -0.0803319  -0.2419727   0.0579066
   0.2574832  -0.3502510   1.1230431   0.1123519  -0.2331633  -0.4626137
  -0.2537308  -0.1226821   0.2251471  -1.6168386   0.5455386   2.2375832
   0.6917143  -0.0429901   0.1008975  -0.2869600  -0.1976262   0.1677368
  -0.2409574   0.0975646  -0.2076278  -1.0103908   1.3240961  -0.3343596
   0.2057431   0.1330196  -0.2777492  -0.4703348   0.5949934  -0.4119194
  -2.3440783   2.2417686  -0.2954921   0.0918011  -0.0802260   0.1443956
  -0.9762871   0.1683357   0.3310094   0.2676371   0.6995967  -0.1065553
  -0.1951793   0.2566372  -0.2426177  -1.6634847   0.5968955   1.1639044
   1.1406736   0.4708605  -0.7348877  -0.2920079   0.2599079  -0.0053278
   0.5394615   0.8023211  -0.3220774   1.1172848  -0.9756160  -0.7678701
   0.0613243  -0.0691636  -0.0806720  -0.3816972   0.5449551  -0.1220845
  -0.6975265  -0.0005578  -1.4508494   0.1198001   0.1194559  -0.1232589
   0.8566571   1.3931586   0.2926383  -0.2384606  -0.1045034   0.6132326
  -0.1091457   0.3890415  -0.2218980   1.0049871  -0.6917444  -0.5286998
  -0.6918900  -0.7372662   0.5895386   0.2584933  -0.1221200   0.1146486
   0.6544886   0.3491869   0.2264715  -0.4408177  -0.7365900   1.1829767
  -0.1112269   0.3231408  -0.0417217   0.9715360   0.6630454   0.0329763
  -0.5248203  -0.2823121  -0.7277448  -0.2099422  -0.1434210   0.2479351
  -0.3378977   0.0928562  -0.6282977   0.9378310  -0.2782575   1.2229732
   0.3454508  -0.1073082   0.0769460  -0.0109557   0.2398198  -0.1789731
  -0.5054433  -1.3737260  -1.3664378  -0.0562769   0.0991687   0.1449621
  -0.7426254   0.7922291   0.8295583   0.8867781  -0.1503456   0.1536567
  -0.1384453  -0.2751352  -0.0041280   1.3341093  -0.9283551   0.3576546
  -0.5585572  -0.3730817  -0.7218704   0.0957734   0.2500398  -0.1390486
   1.4123298  -0.5947335  -0.4629644   0.3188020   0.9402052  -0.9898516
   0.0735349  -0.0468215  -0.3055098  -1.3431207   0.1944404   0.3589730
   1.1384050   0.7222738  -0.7980478   0.3664514  -0.0811125  -0.1587828
   0.6124893   1.0324188   0.2043825   0.2109764   0.5830476  -0.3313937
   0.2004745  -0.4669574   0.0781631  -0.2931791   0.6710157  -0.0162229
  -1.3756257  -0.7373053   0.2914801   0.1095531   0.2191924  -0.0064322
   0.4423648  -0.0539910   0.5998818   0.0546829  -0.1004722  -0.6203573
  -0.0287190  -0.0067953  -0.4277908  -0.2407235   0.4128705  -0.4692683
   0.4415556   0.2140304   0.9193738  -0.1243854  -0.2425745  -0.0031385
   0.5297659   0.4900151  -0.2035979  -1.1362731  -0.3800763   0.3196653
  -0.1613242   0.1042321   0.1837275   1.2585393   1.4227024  -0.8500518
   0.1445384  -0.9005131  -1.4561627   0.1578883  -0.0794678   0.2685375
   0.0258929   0.8066955   0.2043234  -0.9628730  -0.9790663   0.0885524
  -0.0177573   0.0822145   0.1696214  -1.6767135  -1.0318173  -0.6710747
  -0.9140633   0.0832148   1.3451166  -0.0007276   0.0711438  -0.0857336
   1.6623496  -1.1835130   0.0157967  -0.8879957  -0.2654096   0.3875166
  -0.0563468   0.1356673  -0.0869744  -0.5409954   0.4660418  -1.4781576
   0.1768650  -0.2520376  -0.5165316   0.2729431   0.4081428   0.0679210
  -1.0266988   0.0599483   1.3216469   0.4160790   1.4165471   0.1675412
  -0.0884304  -0.2428763  -0.2342634  -0.1928986  -1.7958055  -0.9049802
  -0.2023623  -0.6142747  -0.2966922   0.2618468  -0.2357918   0.0737430
   0.5408776   0.2726046   0.8224953  -0.3914018  -0.5032948   1.0976319
  -0.5197299   0.0058439  -0.3881258  -0.1614668   0.6613364  -0.4037169
   0.6704760  -0.4572909   0.2247937   0.0005476   0.0144621   0.2017035
   0.9198946   0.6120372   1.2344042   0.7094917  -0.0919351  -0.5925630
   0.1239572  -0.0718054   0.2380459  -0.0909394   1.0227536   0.1571950
   0.2643576  -0.3583414  -0.3050206  -0.1950321  -0.3768767   0.0592634
   0.3841156  -0.4894497  -0.0985141   0.9353881   0.9424430   0.3912444
  -0.1371819  -0.0696474  -0.1113331   0.5041381  -0.0247438   0.5339509
  -0.0582468  -0.6155115   0.4728720   0.3715495   0.2563357  -0.1446630
   0.6521980   1.4665058  -0.4396645  -1.4097308  -1.5586582   1.4740963
   0.0979895   0.1670004  -0.0545295  -0.0966016  -0.0997409  -0.4602932
  -0.0236888  -0.9340571  -0.6429456  -0.2444119  -0.1147667   0.2411782
  -0.1159734  -0.0244224   0.8411279   0.8552809  -0.5639963  -0.3025413
   0.1206138   0.0410495  -0.3092797   1.0829463  -0.5635594   0.5407684
   0.3847468   0.4983760  -0.2934805   0.4100038  -0.0661506   0.1072608
   1.3249602   1.0229766   1.0129831  -0.5971234  -0.7399771  -0.3165931
   0.3280105   0.3502239   0.1732049   0.3501041  -1.6547444  -1.1161954
  -0.5996467  -1.0873959  -0.5291531  -0.3019430  -0.1883470  -0.1376194
  -0.5166444  -0.0124341   0.3393942   0.7789999  -1.2070618   0.5863609
  -0.1706884  -0.0485970  -0.2831658  -0.0613949  -0.7357987   0.5584587
  -1.5465742   0.6387241  -0.5096331   0.0588787   0.1641528   0.0058715
  -0.6434494   0.7642101   0.9228711   0.0127860  -0.2157062  -0.0302630
  -0.3108573  -0.3820174   0.2431736   0.9296911  -1.2332945   1.5623760
   0.0194970   0.2719176  -0.1184274  -0.2503288   0.1573294  -0.1049546
   0.9344399  -0.4742126   0.1876896   0.3344395   0.8824785   0.0835111
   0.0458558  -0.0964825   0.4570929   0.8995802  -1.4780757  -0.2940961
  -0.1726327  -0.0531411  -0.8485116  -0.1073528   0.0583016  -0.2644352
  -1.1729387  -0.7951322  -0.0666335  -1.1958511  -0.5242305  -0.3153174
  -0.0063830   0.6464760  -0.2862334   1.5157592  -0.2002068  -0.9951865
   0.8366181   1.9177078  -0.9964547  -0.0288731  -0.3025652  -0.0677620
   1.9334474  -0.2142100  -0.4903883   0.6345751  -0.3770887   0.0102967
   0.1235976   0.0935230  -0.1772219  -0.2196959  -1.9590708   0.0459548
   0.0873798   0.9236919  -0.7696553   0.0335171  -0.0150121   0.3015991
  -0.4219382   0.6327376   1.2785717  -0.0101790  -0.7229084   0.4726582
   0.0512811   0.3072279   0.2550088   0.2801930   0.2712307  -0.1446712
  -0.1492794  -0.2774645  -0.5205738   0.2222736   0.0894200   0.1025831
   1.2514490  -0.3564031   0.9833022  -1.0934471   1.3830316  -0.4456073
   0.3073269  -0.0162257   0.1284351   0.3040554   0.5453944   0.1179792
  -0.8131204  -0.2046400   0.1213994   0.2741797   0.0173002  -0.0203729
  -0.2196729  -1.2835999  -0.7203298   0.8284732  -0.6018749  -0.2686480
  -0.1649817  -0.4420311   0.0363066   0.2573033   0.3494927   0.1261404
  -0.5533057  -0.9710488   0.3559498  -0.1993946  -0.2123285   0.2094142
  -0.0704259   0.8723350  -0.6485599   0.9579013   1.1598635   0.6334115
  -0.2626555  -0.1885446  -0.5357992   0.0624099  -0.3022242   0.5240855
   0.2294521   0.3561867  -0.3260529   0.1823170   0.0446888  -0.4307092
   0.6706825   0.0319817   0.3211056   0.6314492   0.2621765  -0.1315094
  -0.1533489   0.0750404   0.2259054  -0.1802787   0.0777808  -0.9077384
  -0.1441461   0.3731563   0.8308413  -0.0130797  -0.2149643   0.1443090
   0.8538267   0.5603133   0.0847589  -0.3416071   0.1977780   0.3435878
   0.2605177   0.0346741  -0.0324015  -0.1030691  -0.6537629   0.2018766
  -0.5187681  -0.5541206   0.1520793   0.0134353   0.4809731  -0.3912890
  -0.1159980  -0.3500093   0.0942235   0.1274785  -0.7947475  -0.2616933
  -0.1628481  -0.1685363   0.1820604  -0.3042509   0.2454048   0.2624065
  -0.1242982   0.2650047  -1.0833179  -0.0492639   0.1723971   0.0356997
   1.8511077  -0.8183427  -0.4489127  -0.2044355   1.5683284  -1.5566100
   0.0370394  -0.3621568  -0.0136479  -0.2593442   0.3918010  -0.8978221
  -0.9083461  -0.7485448   0.6668452  -0.2286575  -0.2600739  -0.0333513
   0.3575377   0.1537833   0.6445580  -0.9525241  -0.0457693   1.2765669
   0.1498121   0.1059093  -0.0336648  -0.6895496  -1.3786229  -0.4998733
   0.9516410   0.5461448   0.5217671  -0.0290654  -0.0138582   0.0761897
  -0.5701012   0.7456416  -0.7206313   0.5731614  -1.8081789   0.5337366
  -0.3081412  -0.0477756  -0.2795161   0.9160016  -0.2704447   0.7971411
  -0.1131322  -0.8733495  -0.1678103   0.0241600   0.0444275  -0.0584853
  -0.0721416   0.8712512  -0.0312094  -1.7779082   1.1040688   0.1304965
  -0.0883657  -0.0684346  -0.0414895  -0.7518553   0.1605325   0.9977058
   0.8077314  -0.8670321  -0.3185973  -0.2544034  -0.0713550   0.0215884
  -0.3530652  -0.3289841   0.3879788  -0.5651376  -0.7760988   0.7748504
  -0.3268912  -0.1710991  -0.1352617   0.2389702   0.1247862  -0.2641555
   0.6586466   0.7602310  -0.0651293   0.0134729   0.0650534  -0.0821158
   0.0141515   0.0922807   0.1083756  -0.2770721   0.8236942   0.3254011
  -0.0252283   0.3588413  -0.0445314   1.0982829   0.2163626   0.2599849
  -1.2142342  -0.8340118   1.0504428   0.0583489  -0.0011586   0.0449521
  -0.6979417   0.6920800   1.2308472  -1.3551530  -0.3778392  -0.7722811
  -0.1048055  -0.4550917  -0.0958751  -0.4437883  -0.2720793   0.3438712
   0.1087225  -0.6118203   0.3912029   0.0923518  -0.2930259   0.0298692
   1.1124393   0.0252809   0.1396542  -0.6898261  -0.8135224   0.9065185
  -0.4152936  -0.0805275  -0.0450886   0.1905664   0.1934604   0.8010949
  -0.8121206  -0.4846283   0.3352948   0.3277475   0.1014947   0.0071357
   0.5233257  -0.9942072  -1.9956257   0.5400900  -0.2350598  -0.0077525
  -0.2174024   0.2064522   0.0203854  -0.4323391  -0.1455081   0.3297237
  -0.4387940   0.2118095  -0.0885129   0.4286030  -0.2690749  -0.1203628
   0.7296824  -0.0285714  -0.7354618  -0.4329813   0.0469263  -0.3894699
  -0.0398261  -0.2487563   0.0010535   0.3703538   0.8525171  -1.4243253
  -0.4130301  -1.0353003   0.5415453  -0.1189143  -0.2717007   0.1855193
   1.5535927   1.0263184   0.6563405  -0.7138513   0.5241547  -0.9727411
   0.0786647  -0.0429728  -0.1847394   1.4526806   1.2152405  -0.8006091
  -0.3220850   0.9964412   0.0403529   0.0860199   0.1234789   0.1980231
  -0.5765015  -1.4302750   0.1222701  -0.7241865  -1.2247779   0.4660484
   0.0138504  -0.2263862   0.3932030  -1.4235963   0.1878086  -2.1287191
   0.6671495   0.6363118  -1.3569527  -0.0593384   0.0755146  -0.0057582
  -0.2990062  -0.0480479  -0.3370012   0.8407898   0.7159204  -0.6081654
   0.1492245   0.1346072   0.2621740   0.5837991   0.6738898   1.2157640
   1.9034120   2.4043326   0.9481182  -0.1071687   0.0132516   0.0900733
   0.6877388  -0.4815004  -0.4870268  -1.2848865   1.1854293  -0.2487532
  -0.0333382   0.0975115  -0.0277923  -1.2689869  -1.3776747   1.1738430
  -0.5156624   0.3046221  -1.5521815  -0.0493956  -0.0328187   0.1636565
  -0.0611194   1.3179946   0.9953310   1.0144117  -0.9131998   1.7694987
   0.0827338   0.1449369  -0.1366948  -0.6905069  -0.9115180  -0.9781551
  -0.0482558   1.9972106   0.8780805  -0.2670064  -0.1106352   0.0408412
  -0.2835650  -1.2203957  -0.4520929  -1.8642479   1.1379311   0.5240151
   0.2851350   0.1266331   0.1339523   0.3815483   0.6682160   2.0127091
  -0.4931391   0.0344720  -0.4389168   0.2907269  -0.1634804   0.2850220
   1.0603542   0.7454850   0.8567383   0.3168879   0.3428924   0.5223935
   0.0617146  -0.0588060   0.3117369   0.8907504  -0.9771599  -0.2184422
  -1.4818043  -1.0266039   0.5541669   0.0370763   0.0910545   0.0896023
   0.8874113  -0.3706449   2.2770340   0.2864622   1.2867974  -0.0180990
  -0.2220189   0.0064862  -0.0381512   1.5481710  -1.9674366   1.4811308
   1.1471397  -1.3595775   1.6834257   0.3054220  -0.1303053  -0.0043339
  -0.0729146   1.1022062  -0.0648173   0.0931458  -0.0498922   0.1574182
  -0.0346836  -0.3569144   0.1814447   0.3631230  -0.4614724   0.5897194
  -0.5723827  -0.6759267   0.8288227  -0.2449557  -0.0506095   0.1165827
   0.9473011  -1.3971663  -0.6760083   0.7729352  -1.0509822  -0.8980345
   0.1296440  -0.0003726  -0.4411806  -0.6969229  -1.2202446   0.2524338
  -0.4357311   1.3290902  -0.2804014  -0.0815706  -0.0575456  -0.2051877
  -1.9177275  -1.2490056   0.4509675  -0.5217197   0.7250329   0.8744891
   0.1907019  -0.1243540  -0.1887019  -0.1726162  -0.4117315  -0.7566003
  -0.5336695   0.2568559   0.4993187   0.0168674  -0.0782451  -0.0481258
  -1.0487778   1.7047496  -0.6956151   0.1100921  -1.2262322   0.3949850
   0.0936493   0.1479312  -0.0137263  -0.7719374  -0.4725841  -0.2447558
  -0.8681010  -1.7913533  -0.3009095   0.0830655   0.0536176  -0.0567666
  -0.7395083  -0.9025518   1.5824628   1.3716593  -0.2527328  -0.1116955
   0.0711597  -0.0890940  -0.1484483  -0.1421386   0.5704642   0.2052395
   1.6498355   0.1554652  -1.0026634  -0.0484180  -0.4101668   0.1631860
   0.7783748   1.1455270   0.2059038  -0.2196370   0.2373541  -0.7483509
   0.0465790   0.0823700   0.0936030   0.2190848   1.0356047   0.3679920
   1.9317720   0.3932293   0.1371412  -0.1692821   0.1175858  -0.1493406
  -1.1939180   0.1754363  -0.1126848  -0.0459673   0.4323286   1.9209262
  -0.0423276  -0.1141198   0.1168425   0.5644046   1.2232155   1.4337747
  -0.4416047   0.3974747  -0.2889600  -0.0831975   0.0172713   0.1790224
   1.0889702   1.1730738  -0.9659968   1.0257730   0.3699684   1.1463981
   0.1419116   0.1196185  -0.0702076  -0.1471071  -0.8369932  -1.9361302
   0.1916004  -0.4732488  -0.7536461  -0.0361169   0.0144241   0.1200270
  -0.3718441  -0.4937481   0.0178050  -0.0151972  -0.3227047   0.1567405
  -0.1019768   0.1929752  -0.0573640  -0.3687994   0.2454695   0.6186823
   0.2685106  -1.0371231  -0.7155795   0.0749892  -0.0968690   0.1870236
   0.2570542   0.0679737  -0.1156374  -1.0807772   0.4538921   0.1116408
  -0.2230563   0.0156626  -0.1204204  -0.1035877  -0.4563344  -0.0949904
  -0.4675117   0.7500706   1.0104856   0.4064281  -0.2512504  -0.2151116
   0.3168821  -0.7584275   0.9480303  -1.1414982  -0.5035154  -0.3164589
  -0.1966749  -0.3285662   0.1081760  -0.8568714   0.2126957   0.0483845
  -0.3850441   1.6140454  -1.1026435   0.2166953   0.2110202   0.1503580
   0.0347434   0.7928926  -1.0425256  -0.4189221  -0.7243861   0.6942044
   0.1165368   0.1489005   0.1687648   0.2253864  -0.0869810   1.2311159
   0.4415108   0.2787588   0.7093119   0.0243733   0.3263313   0.0658066
   0.1265678   1.0741934  -0.5494425  -0.0847680  -0.0169134   0.5187815
   0.5478224  -0.0452107   0.1504886   0.2744195  -1.4019511  -0.4085479
   0.6674196  -0.2550205  -0.7758495  -0.0964986   0.0261506  -0.1998394
  -0.7950379  -0.4423262  -0.1126046  -0.7531761  -0.1705277   0.5434299
   0.2202948  -0.1442958  -0.0685930   1.0712305  -0.3982773  -0.3655662
   0.3455941  -0.6788463  -0.4566472   0.3042125   0.0247403   0.0895023
  -0.3273601   0.2456953  -0.4698403  -0.7300869   1.3153408  -0.5596405
  -0.1185065  -0.2747315  -0.3112990   1.3422067   0.0457590  -0.8059569
  -0.0480039   0.6218289   1.1923177   0.0435363   0.0923115   0.0576831
   0.0845349  -0.6788839   1.0995035   0.7323242   0.1435045  -0.7519516
  -0.0432435  -0.2798184  -0.1891453   1.3737620   1.7095002  -0.6506718
  -0.5212662   1.5061632  -0.1815997   0.0571960   0.3791850   0.2770161
  -0.7247540  -0.3917635   0.2453341  -0.8472016   0.0190237   0.0794086
  -0.1685241   0.3214532  -0.0890050  -0.7610807   1.4140677  -0.3707419
  -0.0007109  -0.2032423  -0.3151169  -0.1472905   0.0714599  -0.0972160
  -0.4502060  -0.9786791  -0.0357123   0.0451290  -1.1626337  -1.2940044
  -0.3826500   0.1640480  -0.4348702  -1.0716901  -0.5029096   0.2577661
   1.2830625  -0.3733214  -0.1412832  -0.1610889   0.1410914  -0.1913502
  -0.6867384  -0.0805263   1.1667805  -0.6962706  -0.9328724   0.0057452
  -0.1213156  -0.0643532   0.0677365  -0.7591579  -0.4683088   1.2318417
  -0.5564921  -0.5060855   0.0781305   0.3489281   0.0099364   0.3169883
  -0.8669554  -0.3016514  -0.6278127  -1.7638370  -0.3615212   0.1542113
   0.0315989  -0.0224746   0.0189403  -0.5791950   0.1917006   0.6484593
  -0.2482308   0.6289482  -0.0098502  -0.1142145  -0.0519531   0.1244527
   1.3775697   0.2708077   0.1935787  -0.2547881   0.0416078  -0.3129599
  -0.1179116  -0.1923064  -0.1639956   0.5734597   0.5126396   0.7712896
   0.4169019   0.1050351  -0.1595022  -0.3496343   0.1350757  -0.0852052
  -0.1231845  -0.7248608  -0.3831850   0.3582848  -0.0462120  -0.4348358
   0.0114674   0.0944487  -0.0943028   0.7278905  -0.0608646   1.4797319
  -0.1632062  -0.2676937   0.4319746  -0.1753158   0.2285160  -0.1552423
   0.3379320  -0.3833222   0.5586779   0.4062228  -0.1452510  -0.2633208
  -0.0478371  -0.0120729   0.2058914   0.7130150  -0.9351998  -0.2461722
   0.2078352  -0.1460756  -0.6477619   0.0520381  -0.0307510   0.2170310
  -0.4159812  -0.0950239  -0.1647751   1.6938740   1.3834196  -0.5134822
  -0.1248680  -0.2342473   0.0774053  -0.7743146  -1.3597001   0.0818119
   0.9874025  -0.3391652  -0.2657857   0.0802824  -0.1204371  -0.0133139
   0.6324871   0.8977773  -0.8202453  -0.1702019  -0.2859474  -0.2543243
  -0.1294134   0.1577866   0.2927363  -0.4228881  -0.2951764   0.7955952
   1.0600120  -2.1147454  -1.0842549  -0.1265394   0.0555494   0.0672107
  -0.7711551   0.7508902   0.0742426  -0.2824348  -0.9155469  -0.7847350
  -0.0100877   0.3720193  -0.0526794   1.3163782   0.8232096   0.0021442
  -1.5509888  -0.4494553   0.3502062   0.2239650  -0.4085911  -0.0496679
   0.4582516  -0.0268647  -0.7546594   0.7784040  -1.0453277   0.6791188
  -0.1671187  -0.0539173   0.1828032  -0.0819429  -1.7287326  -0.1845489
  -0.5986016   0.2445024  -0.5264751  -0.3624139   0.1251100   0.0746724
   1.1704695  -0.0553822   0.5465975  -0.1671122   1.0767478   0.6853161
   0.0017253   0.0402741   0.2353521   0.8023384   0.3592626   0.1934998
   0.3052420   1.0395355   0.8949729  -0.0396035   0.0940959  -0.2115607
   0.2004365  -0.8269679  -1.5398999   0.6499441   0.3713709  -0.3793731
   0.0728087  -0.0444939   0.2264067  -1.4276419  -1.2269461   0.8650918
   0.0799917   0.2834402   0.0706296   0.0118052  -0.2057997   0.2050324
   0.3741252   0.6249602  -1.8389320  -0.4601277  -0.1549177  -0.3581266
  -0.3074147  -0.0384730  -0.2190387   0.1420449  -0.5578246  -0.6744930
   0.2208507  -0.4542220  -0.5840152   0.3918010  -0.0621557   0.0310951
   0.1080347  -0.0472568  -0.9025280   0.5999197  -0.1719113  -0.6257045
   0.2737340  -0.1649326   0.0952188  -0.7856210   0.6392949  -0.1510488
   0.9813029  -0.6866444  -0.5821445  -0.1718725   0.1413275  -0.3022949
  -1.0352695   0.4165404  -0.6008675   0.5118318  -0.7339780  -0.1049952
   0.4338260  -0.0032353  -0.1646956   0.5393031  -0.4656021  -0.9815098
   0.0911124   0.4166510  -0.1023011  -0.1093153   0.4298521  -0.1141240
  -0.1236136  -0.1487024   1.0608282   1.0479598   0.2575274   0.7444378
  -0.2100078  -0.0536775   0.1442147   0.6968465   0.1858457   0.9408570
   0.3463335  -0.2444279  -0.0434430   0.3127934   0.2853442  -0.1496405
   1.0094880  -0.6886618   0.3626499   0.1092959   0.5143768  -0.3617724
  -0.1372554   0.0473594   0.0348054   1.2600347   0.5801416   0.4342855
  -0.5287108   0.0231034  -1.0788819  -0.2957411   0.1652788  -0.2257030
   0.5681924   0.7879990  -1.2682585  -0.1721814  -0.8716457   0.5654745
  -0.2177886  -0.0324585  -0.1230086   0.2871417   0.2083943   0.5001119
  -0.6853405  -0.6329168  -0.1041456  -0.0434748   0.1683961  -0.4558912
  -1.5349327   0.2235145   0.2216168   0.2218231   0.7053427   0.0542921
   0.2694621  -0.0807458   0.6265386  -0.4429731   0.3552286   0.2678399
  -0.2859942  -0.5513413   0.8813245   0.1784695   0.0718854  -0.1966574
   1.0581945   1.9593024   0.0939916  -0.9915571  -0.7241227  -0.1863988
   0.0587769  -0.1090650   0.1443889   0.9516873   0.5846199  -0.0196503
  -0.9384580  -1.1186734   0.2290154  -0.4564196   0.1882342  -0.2113731
  -0.6267634   0.9612649   0.0780972  -0.4983647   0.9999356  -0.8207368
   0.2547940  -0.2416424  -0.1035483  -0.7374380   1.0474774  -0.4770436
   0.3792042   0.6941157   0.7752529  -0.1899768  -0.1028587   0.2055219
  -0.7178811  -0.4315120   1.0397002   0.4006293   1.2300129  -0.3862291
  -0.2160677  -0.1154562  -0.0987362   0.8537273  -0.4018655  -0.0665519
  -0.0151625  -0.2679387   0.5065503  -0.0203907   0.0339631  -0.0238708
   0.5520380  -0.4813383   0.8746988  -0.4761061   0.5592643  -0.1642675
   0.0534709   0.1277274   0.0524811   0.2249054   0.1234967  -0.0894734
   0.2810746   1.6035845   0.3393547   0.2861300   0.0747444  -0.1325340
  -0.1190454   1.0079236  -0.3246027   0.4385543  -2.3373084   0.6796128
  -0.2360922  -0.0820458  -0.1437893  -1.7229458  -0.0959164  -0.1738023
   1.1491753  -1.3070529   1.0067714   0.1194528   0.1324666   0.0326692
  -1.1641148  -0.8522176   0.3175072   0.2707198  -0.2498439  -0.6482241
  -0.1528890  -0.0089690   0.3147753   0.3538782  -0.8346171  -0.2865868
   0.3140785   1.2570232   0.2884628  -0.0728550   0.0666242   0.0023883
  -0.6032174  -0.8002101   0.4684724  -0.6574052  -0.2017165   0.4717273
   0.0581808   0.1719501  -0.4704579   0.2027739  -0.2922513  -0.9126829
  -0.2304401  -0.9095647   0.5379381   0.1331874  -0.0944303   0.1711600
  -0.3585863  -0.6196498  -0.5346515  -0.6039929  -0.4631607  -0.0791228
   0.4058507   0.0706376   0.1273150  -0.4735232  -0.7592066   0.3785620
  -0.1530908  -0.6156400   0.1528820   0.3268484  -0.1193388  -0.2944404
   0.4607108   0.1357279  -1.6537650   0.4686919  -0.7744895  -0.4525912
   0.2495586  -0.0657804  -0.2051299  -0.6194050   0.5336495   0.4443896
  -0.8558036  -0.4857334   0.3969373  -0.0953675   0.0607358  -0.0691348
   0.6901689  -0.6798303   0.5842754   0.9524424  -0.5123827   0.8797005
   0.1500421  -0.0174902  -0.1186712  -0.8965786  -0.5882602   0.4426701
   0.3750412   1.7826070  -0.1714313  -0.0773790   0.1795094   0.0118219
   0.9506180  -1.2982398  -0.4407789  -1.2746282  -1.2173066  -0.2090106
  -0.0984619   0.0997978  -0.1099215   0.2258302  -2.4684420  -1.2973330
   0.7538857   1.3944026   0.4844904   0.1817846  -0.0036280  -0.0815330
  -0.8766221  -0.5060560  -1.1966525   0.3508615  -1.7140586  -0.6277589
   0.3614031  -0.0615232   0.3040769  -2.1315732  -0.0017043  -0.5971482
  -0.7294945  -0.1483707  -0.0999280   0.0862751  -0.1159096  -0.0848137
  -0.1485062  -1.7384833  -0.6093441   0.3349513  -0.1352445  -0.1509976
   0.2308596  -0.0823801  -0.2898750  -0.6658695   0.7121753   0.7232363
  -0.6865482   0.3896277  -1.0227621   0.0258471  -0.0033958  -0.2013875
  -1.4972907  -0.3955545   0.5990637   0.1279012  -0.0376074   0.5469936
  -0.2945288  -0.0120968   0.0373916   0.1493290   1.2845533   0.4928487
  -0.6649613   0.4205848   1.4577965   0.0081618   0.1129600   0.1799697
  -1.3118130  -1.3803355   0.6287925  -1.0356060   0.1762867   0.5732569
  -0.1872307  -0.1051855  -0.1600858   1.4143759  -0.0098231  -0.4055072
  -0.3625788   0.5560780   0.6330295  -0.1486408  -0.3928732   0.2208003
  -1.6667329  -0.2455594  -0.3382665   0.6552981   1.9336048  -0.1602299
   0.0442007   0.1034773   0.1588802  -0.4711709   0.3828949  -0.9960462
  -0.1330823  -1.1958647  -2.1870003   0.1490910  -0.1563181   0.0317935
  -0.2627535   0.6265936  -0.0876506   0.5629493   0.2310772   0.1259915
   0.1303504  -0.0830713   0.1065604   1.0188427  -0.6671327   0.1697969
   0.5813280   0.7459934   0.2283174  -0.1124539  -0.2565643   0.0317985
  -0.4233113  -0.6989908  -0.6484701   0.3284176   1.5665237  -0.3219997
  -0.0570476  -0.2386402  -0.0580963   0.7460763  -0.6993925  -1.0104874
   1.7484131   0.2234952  -1.0928887   0.1748678   0.1491502  -0.0603707
  -0.5487090  -0.2606222  -1.1344386   1.1560173   0.7923833   1.9918838
   0.1685634  -0.2038109   0.0911353  -0.1499640   1.5516551   0.8486089
   0.7034946  -0.6345363  -0.0256170   0.0104186   0.0443973  -0.0797369
   0.3772722  -0.5859919  -0.4026682  -0.1178608   0.9505675   1.3742874
   0.1850405   0.0077215  -0.0171852  -0.2706928   0.7172701   1.4021980
   0.5432660   0.0598176   0.7231931   0.2043734   0.3186172   0.0730452
  -0.1020284  -1.0373200   1.3727397   0.9978517   0.7089033  -0.0496408
   0.1697261  -0.1209694   0.0898248   0.0935380   1.3120043   0.3947224
   0.8845373   1.3431491  -1.2699430  -0.0196977   0.1974761   0.0183847
   0.1456959  -0.1827171   0.8783382  -0.2778972   1.5779330   0.9499890
   0.2057184   0.5354764   0.0873272  -1.3177007   0.2855164  -0.7446963
  -0.3046515   0.4596220  -0.2055843  -0.2455315   0.1724772   0.1025373
  -1.1732283   0.2053718   0.9232190  -0.7128932  -1.3674759  -1.1263345
  -0.0816227  -0.0635290   0.2418340  -0.9550347  -0.5684237   0.8544275
  -0.1779479   0.0063531   0.3545918   0.2972494   0.2009036  -0.3645576
   0.4464223  -0.8979930  -1.4357952  -1.3947467  -0.1442547   1.2174902
  -0.2400418   0.1565133  -0.0134846   0.4088638  -1.5952851  -0.1029655
   0.0701153   0.2120262   0.3588531   0.0182603  -0.0581420  -0.0755517
   1.9924537  -1.7527218  -0.6545989   1.6902035  -0.5047824   1.0167782
   0.1974192  -0.0081711  -0.0808156  -0.3556098  -0.3516730  -0.9774020
   0.0634878   0.0679834   0.6624638  -0.0456746  -0.3855908  -0.1483383
   0.7772301  -1.2135839   1.0804507  -1.2903877  -0.1933955   0.5095886
  -0.1379866   0.3813261  -0.1527952   0.7274342   0.3703893  -0.6760372
  -0.6741298   0.0004160   0.7994796  -0.0144350   0.1875307   0.3645712
   0.0009736  -0.4673642   1.4751699  -0.3151373   0.3340927   0.1859849
   0.0046715   0.0847765   0.2453195  -0.9970593   0.4960966  -0.3530581
  -0.2431726   0.7744455  -0.9431415   0.3943379   0.0643435  -0.2302785
   0.0771234  -0.3451501   0.3844850  -0.7183062   0.3133873   0.5098680
   0.0048532   0.1698054   0.1216465  -0.4188835   1.4177774   0.1987747
  -0.7819772  -0.7752037  -1.6063606  -0.0428066  -0.1733709  -0.2485267
  -0.7081205   0.0341982   0.0000384  -0.0182410  -0.4329331  -1.0470583
  -0.0737414  -0.1006362   0.0034930  -1.4568517  -0.6061674  -1.4915392
  -0.1801877   0.4269049   0.3209962   0.0159304  -0.0545122  -0.0140320
  -0.0008641  -0.6137427  -0.0012770   0.7045780  -0.4180225  -0.0152865
  -0.0109055   0.0800368  -0.0114543  -0.3043710   0.4134238  -1.4076618
   0.2560209  -1.1611576  -1.2800747   0.1598069  -0.0125927  -0.0814798
  -0.4227497  -0.7800630  -0.4887489  -0.0049273  -1.4935281  -0.6084872
  -0.1344117  -0.0776143   0.4152941   1.3616927  -0.9509675  -0.4670442
   0.3238329  -0.5048236  -0.4446561  -0.0176536   0.1428825  -0.0923464
   1.0778346   0.0325840   0.8653225   1.5575496  -0.3930636   0.1008390
   0.0559862  -0.2518107   0.0694595   1.2349850   0.0463022   2.6363492
  -0.2962415  -1.1470463  -0.4061963  -0.0601810   0.1690341  -0.0819800
   0.0802721  -0.0343014  -0.5134476   0.9316185  -0.0950311   0.3462579
  -0.3259324   0.0891860   0.0487483   0.9642181  -0.2911572  -0.3575612
  -0.1056799   1.3668950   0.7412896  -0.1465258  -0.2582572   0.1615961
   1.0742879   0.0171063  -1.0322006  -0.3206717  -0.0442394  -0.1686796
   0.3614963  -0.2300833  -0.1129650   0.9517614  -0.5067413  -0.3055453
  -0.8548832   0.2135125  -0.6671910  -0.0714469   0.0302565   0.1201427
   0.1299934   0.6259121  -0.2071427   0.2193098   0.5650358   0.6070120
  -0.1191228  -0.0471776  -0.3634270   0.6219928   0.8208110  -1.7054197
   1.6492498   0.5450088   0.5609155  -0.0742021  -0.0054023   0.2773013
  -0.9945996   0.1664618  -0.0573673  -0.5620124   1.1723496   0.4106681
   0.1351474   0.1445193   0.0852785  -0.7178904  -0.0137558  -0.2962392
  -0.5612094  -0.8009441  -0.7068580  -0.0996293  -0.0190287   0.3521458
  -1.2222130  -0.4200558  -0.6695244  -0.0691865   0.2359377  -1.0940744
  -0.1366429   0.2048369  -0.2239298   0.2416158  -0.3982230  -0.9222265
  -0.5179151  -1.7021509  -0.5805970  -0.4561079  -0.3332448  -0.0883722
   0.4252881  -0.0673413   0.1330497  -0.4840963  -0.0513261  -0.4261858
   0.3277604  -0.3747417  -0.0622045   0.6063358  -0.5647966  -0.0175839
   0.1473097   0.5006360   0.1449961   0.1153684  -0.0497001   0.2600390
  -0.4112522   1.1516531  -0.5861439  -0.2645706   0.8012764   0.0236672
  -0.2600919   0.0200958   0.1526804   0.0065056   0.5550855  -1.6944233
   0.6008853   0.4961965   0.4587482  -0.0291094  -0.2254552   0.2519740
  -1.1793559   2.5559332   1.0232430   0.5003787   0.0406829   0.9702667
  -0.1173423  -0.2498461  -0.3392145   1.0137211   0.2818142   0.2106656
   2.4772465   1.8451623   0.2508858  -0.2466836   0.1218066   0.2525125
  -0.3306527  -0.9295183  -0.1479969   0.4586407  -1.0180513  -0.4674810
  -0.1746280   0.2496572   0.1080457  -0.0606284  -1.1879076  -0.0954179
   0.0457626   0.0301850  -1.4726403   0.1704808  -0.3974705  -0.2343987
  -0.0136915   0.0066503   0.5482681   0.2457419   1.1139638   0.1336945
   0.3120131   0.1309752   0.1781650   0.0347821   0.9209234   0.3944049
  -0.0105804   0.3760401  -0.7203345   0.3230674  -0.1063332  -0.0628338
   1.0438529  -0.9431332  -0.9553562  -0.7582442   0.6587835   1.5185572
  -0.0479834   0.0779229  -0.1673182  -0.2052363  -0.3065094  -0.5777940
   1.2590075   0.7654276  -0.4744681   0.1803275  -0.1234528  -0.0306066
   0.6852303   0.2480508  -0.0821045  -0.4600014   0.2010718  -0.5715565
  -0.0754008   0.0904427  -0.1184198   0.6432786  -0.5761904  -0.0034952
   0.1381891  -0.6786729  -0.3092627  -0.3143888   0.2388760   0.1226843
   0.0330616   0.1826138   0.9033753   0.5896454   0.4067823  -0.8448753
   0.0402320  -0.2094193  -0.1548343  -0.9447972   1.0784144   1.0214620
  -0.8026759  -1.0509945  -0.0872047   0.2464070  -0.1793420  -0.0882692
   0.7743112  -0.2576871   0.0421368   0.1360239   0.9909889  -0.5518022
  -0.4582887  -0.1506695  -0.0546663   0.1245208   0.3953207  -0.2812794
   0.7616265  -0.0200406   0.2115309  -0.2335166   0.0109990   0.1097960
  -0.1920864   1.3231666  -1.1328193  -1.4220635   0.9141386   0.5776774
  -0.1345389   0.1207448  -0.0627067  -1.6874411  -1.2186925   0.8075179
  -0.1374392  -1.3988035   0.7214403  -0.1840948   0.1274861  -0.0125223
  -0.1435455   0.7093026  -1.4097364   0.0046099   1.4819666  -0.1263544
   0.0707380   0.0222873  -0.0751403  -0.1890246  -1.4845847  -0.6059230
  -0.4917538   1.2488614   0.0493878   0.2985817   0.2031240  -0.1745420
  -0.2429533  -0.6701496  -0.3300909   0.5837365  -1.2924830  -0.9257224
  -0.3285966   0.0163565   0.0160341   0.3063050  -0.1699941   0.9649058
   0.1596506  -0.3526519  -0.2759311   0.1038350  -0.2831687  -0.0792384
   0.5670803   1.5109478  -1.5449401  -0.6609567  -0.3388560  -1.0997179
  -0.3543577  -0.1137876  -0.2247498  -0.3587602   1.2675198  -0.2005107
   0.7448359  -0.5417441  -0.2453508   0.0328520   0.4230369   0.4640011
   1.2791339   0.4495977   0.5314059   1.0655133   0.9649919   0.1198055
   0.0781752   0.0154984  -0.1959155  -0.0810578  -1.0613286  -1.4745035
   0.3374601   0.3073497  -0.8981067   0.2564999   0.0567437  -0.1968937
  -0.3400266  -0.4653817   0.9660680  -0.6568542   0.7458088   1.2096156
   0.2173706   0.4459474  -0.1357331  -1.2321186   1.0545497   0.2229269
   0.5080464  -0.0643425  -1.2963630   0.0445903   0.0059572   0.1532172
  -1.0547694  -0.5408629  -0.6892435  -0.0629428  -0.3541115   0.2551613
   0.0316917   0.3244612   0.0229041  -0.5204305  -0.3529810   0.1851296
  -0.5758760   0.2352137  -0.4993204   0.1127283  -0.0186872   0.0345619
  -0.4967421  -0.5589876  -0.6406574  -0.6259330  -1.1647433   0.1314991
  -0.4088227  -0.2070532   0.0955530  -0.6017263   1.1492630   0.7850193
   0.1265085   0.8829352  -1.6038344   0.2000564  -0.0349523   0.1379282
  -0.4551065   0.6744758  -0.3174924  -0.2027621  -0.4803344  -1.1178064
   0.1108705   0.0010160  -0.1031326  -1.9251370  -0.7632847   0.1822810
   0.6496031  -0.3599267  -0.3486760   0.0976595  -0.1228431   0.1140331
  -0.2799907  -0.4767219  -1.5870391   0.6043682  -0.2953839  -0.7335175
   0.0618303  -0.4365711  -0.2139531  -0.4410512  -0.8630611   0.7093632
  -1.1008867   0.8285782  -0.4640982  -0.2937938  -0.2682527  -0.0204580
   0.1388379  -1.6778560   0.5494877  -1.3818288  -1.2062899   0.1706932
   0.1383403  -0.0370002  -0.0857215  -0.8479673   0.0121078   1.2480626
   0.7728351   0.9090764   0.8056381   0.1768302  -0.1430976   0.0392483
  -0.3803072  -0.4737130   0.4107166  -1.5309284  -1.5738477   0.9558595
   0.0351225  -0.0096585  -0.2723888   0.8309802   0.6443317  -0.5594652
  -1.1427728  -0.0629337   0.7251737   0.1414635  -0.1791275   0.0541522
   0.4377178   0.6738694  -0.8097682  -0.2887883  -1.4646865   0.8367519
   0.0521378  -0.1558063   0.1846399  -0.8639375  -0.2059815   0.1612544
   1.6150355   0.6698776  -0.1172256   0.2307261  -0.1666513   0.1541550
   0.2104571  -0.0248589   0.4903764   0.5449417  -0.0190916  -0.8269608
  -0.3852418   0.0615013  -0.1478302  -0.0567055   0.0725347   2.0102236
  -0.9753668   0.5356252  -1.1827668   0.0189517   0.0564220  -0.3741223
   1.2914340   0.5912717   0.3984050   1.4460256  -0.8279625   0.4626758
  -0.1816659  -0.1672071   0.0563593  -0.5913327  -0.1453713   1.4751259
   0.8092805  -0.2731096  -0.5660415  -0.0520252  -0.3186721   0.1287387
  -0.5884228   0.1444913   1.6932517  -0.3615728  -0.7690747   0.0872828
   0.1597524   0.0860461  -0.0845696   0.3230734  -0.9400068  -0.3999860
   0.1606430  -1.0752754   0.1627736  -0.1217229  -0.1367615   0.1957782
   0.7939909  -0.3043857   1.8806591  -0.5994855   0.4495807   0.2149160
  -0.0302635  -0.0294318   0.0509570   0.3993749  -0.0173353   0.3178039
   1.0096065   0.9829606  -0.3360949  -0.0761545  -0.1247195  -0.3113362
   0.6233321  -0.4567845  -0.1537644   0.4942714   0.2214084   0.6668971
   0.2617095  -0.0380347  -0.0119362   0.6816397  -0.3489687   0.3234950
  -1.0606643  -0.4509686   0.9621781  -0.0772976   0.0247328   0.3722804
  -0.5440577  -1.6580276   0.3278725  -1.3043245  -0.1468608  -1.2452832
  -0.2941467  -0.1010070   0.2093983   0.2775851  -0.0219638  -0.8371242
  -0.6966536   0.5460994   1.6957217   0.0469553  -0.1610504   0.1136369
   0.5732641  -1.1104214  -0.0796968  -1.5954919   0.8921165  -0.0213730
  -0.1841978  -0.1894386  -0.1346691   0.2808576   0.8639645  -0.4107540
  -0.2860222  -0.1051729   0.2825135   0.0317602   0.0437980  -0.0210660
  -0.2491158   0.9805841  -0.1874578   0.4685718   1.2563632  -1.0876119
  -0.1443695   0.3274702   0.1971458  -1.5933577  -1.1534764   0.1520148
   0.1014399  -0.5694174   0.7082487  -0.0351467  -0.0853685  -0.2409041
   0.8575910   0.8252510  -0.0862457   0.1535034   0.8520501  -0.6707975
  -0.1859057  -0.2445058  -0.0653972   1.4809266   0.3144551  -0.8030838
  -0.8264579  -0.0308657  -0.2601854   0.1277238   0.1842335   0.0153384
  -0.5790406  -0.3948902   0.4284280  -1.2506367   0.2384190   0.2430436
  -0.1001590   0.1507104   0.0616837   1.2946607  -0.4327519   0.1981907
   0.1933291  -0.5486765  -0.0901278  -0.3018637   0.3468749   0.3330559
   0.6692005   0.5614149   1.0611762  -0.6525349  -0.2913325  -1.5507724
  -0.2581086   0.2173107   0.3636676   0.7600230   0.2710853  -0.2968218
   0.9741203   0.7992687  -0.2102918   0.1580527  -0.2471102  -0.0814280
  -0.3687654  -0.0305689   0.9079977  -0.2526956   1.5170035   0.6926617
   0.1197018  -0.0239131   0.1010317   0.7141382   0.7227657  -1.3500109
  -0.4424109  -0.4647894   0.3285714   0.2402426  -0.0737673  -0.2344064
   0.1306528  -0.3987464  -0.3456756   1.1381857  -0.4519762  -0.3922413
   0.2045657   0.0321844   0.1193075  -0.2611434   0.0332687  -0.4956869
  -0.6443303   0.5250225  -0.9601560   0.2032491   0.0668887   0.0668608
   0.5266461   0.8327307   0.7046574  -0.1169372  -0.9036140   0.2384177
  -0.1006914   0.1987544  -0.0143971  -0.2738031   0.3606649   0.9831861
   0.0064764  -0.1201314  -0.0816929   0.0629432   0.2810603   0.1546989
   0.5348238  -0.5350282   1.3488059  -0.7939221   0.0596249   0.5877414
   0.1632094   0.2608069  -0.4314485   0.1825137   0.6970527  -0.5713320
  -0.2679638  -0.3786979   0.3416731  -0.0150028   0.3079744  -0.2562689
  -1.0045801  -0.0203565  -0.0024253  -0.3131533   0.6411543  -0.3585906
  -0.2937646   0.2459589  -0.1409537   0.1393341  -0.9334893   1.1950005
  -1.4684329   0.9228380  -0.3143658  -0.0403898   0.2648437  -0.0512048
   0.0327224  -0.7303571  -0.3694107   0.8136513   0.0990555  -1.1714416
  -0.1136427   0.1694780  -0.1492663  -0.5913396  -0.0557769  -1.2202649
  -0.4035945  -0.2759612  -0.4338864  -0.0194082  -0.4742364  -0.0678800
   0.8548995  -0.9202470  -0.2436017  -0.5851870  -0.8432503   0.2607164
   0.1082396  -0.2141131  -0.0144993   0.1789587  -0.9874420   0.5638410
  -0.3409145  -0.6938079  -1.7067223  -0.4405148   0.2376542   0.0676054
   0.3539359   0.7107779   0.1168036   0.1875498  -0.3235296   0.8090767
   0.2345123  -0.0271998   0.0394345  -0.8397122  -0.9883602  -0.2947026
  -0.2607251   0.3026474  -0.5040874   0.1307026   0.2323090   0.0864752
   1.0897944  -1.2232800  -0.8904344   0.6387538  -1.0954483  -0.9720281
  -0.4672185  -0.5600839  -0.2054825   0.1725875   1.9528053   0.4615639
  -2.0081427  -0.2557278   0.7623898   0.0728646   0.0842537  -0.1479431
  -0.2974732   0.0391178   0.2419315   1.2300802  -0.1576262  -0.2776969
   0.1284382   0.0703755  -0.0459655  -0.0405056  -0.9573718  -0.9384257
  -0.3652447   0.9419193   0.1124720  -0.0536784  -0.3527153   0.1283916
  -0.3110669   0.3585931   0.1519225   0.0385934   0.8219314   0.2964784
  -0.2846188  -0.0346072  -0.3334780  -0.8534533  -0.2318349  -0.4101428
   0.5729031  -0.3063905   0.3450161  -0.2164744   0.3330282  -0.5196083
  -0.9405587   1.4792429  -2.3665380   1.0807899   0.7457530   1.0431862
  -0.1518437   0.0243412   0.0285916   0.5243155  -0.9379027  -1.1723014
  -0.0973255   0.0191377   1.1520430   0.1444628   0.3449399  -0.0302953
  -0.2135027  -0.4372254  -1.1310169   0.8288036  -1.5071677   1.1880082
   0.0719454   0.0758846   0.0960594  -1.6387628   0.4339673  -0.4310942
  -0.8808771  -0.7601174  -0.3441595  -0.1177798   0.2365540   0.0903419
  -1.2343261  -0.5954119   0.2095950   0.7135670   0.8627069   0.8583741
   0.1953865   0.2951644  -0.2733129   0.4462998   1.2798593  -0.1075507
   0.4137956  -0.8449259   1.1349196   0.1093715  -0.1473452   0.1340511
   0.0356297  -0.2677737   0.5059366  -0.4354237   0.7729976   0.5627577
   0.0527085   0.1435134   0.1147980  -1.2270466  -1.1217741   1.5821698
  -0.7174412   0.0487980  -0.5532537  -0.0907537  -0.0112165  -0.2714503
  -0.3516822  -0.5188633  -0.1337941   0.2737248  -0.2081944   0.0236876
  -0.1536316  -0.0130190  -0.2139385   0.6643882   0.3757940   1.5410783
   0.0495745  -0.3454347  -0.8315473   0.1709951   0.1356672  -0.0833054
   0.1663095   0.5567315  -0.1094104   0.0551645   0.7659444   0.2990254
  -0.0648057  -0.1448232   0.1968895   1.2691244  -0.4330366   0.2972150
  -0.2265544   0.1489261   0.3079249  -0.2552544  -0.1702162  -0.3980821
  -0.7138548   0.7227446  -0.9457828  -0.3937107   1.1434073   0.4785057
  -0.2577739  -0.3884746   0.1131060  -2.0867481  -0.0479667   1.0048866
   2.0782223   0.6152767   0.2954100  -0.1639658   0.3736564  -0.1081729
   0.5660363  -1.0853275  -0.1962426   1.4505827   0.4695727  -0.0402338
   0.1043346  -0.1994772  -0.1926160   1.5507200  -1.5473406   0.2932713
   0.7642031   0.1941049  -2.2509990  -0.1447843   0.1080603   0.4056811
   0.4525905  -0.6081935  -0.2203919  -1.2613901   0.7418191  -0.3171844
   0.1797967  -0.3623932  -0.1121021  -0.4149606   0.8643665   0.0421507
   0.0893315   0.0817022  -0.5624338   0.1483044  -0.0844940   0.1762583
  -0.0828527  -0.3627470   0.0396577  -0.5105703   0.1171647   0.2416762
   0.4840983  -0.2558164  -0.1720089   0.8919016  -0.4305454   1.1306641
   0.7538310  -1.9376973  -0.7724736   0.0894096   0.1811182  -0.0113924
  -0.1011658   1.4718908  -1.0315315  -0.4390288   0.4713199   0.5391192
  -0.0515821   0.1320385  -0.0594967  -1.2676611   0.5342832  -0.1020039
  -0.4300505  -0.4576662   0.3897870  -0.0312926   0.0465586   0.1762899
  -0.3902832  -1.5093484   0.3355742  -0.0624419   1.6979866  -1.4812374
  -0.1032151   0.0896490   0.0101926  -0.6500165   0.7942342   0.7366832
   0.5328981  -0.5848204  -0.5773609  -0.1354058  -0.0976822   0.0404595
   0.2494644  -0.6881893  -1.4895726   0.1576607  -1.4467428   1.0688581
  -0.2281202   0.1681769  -0.0409148   0.1993695  -0.1639602   0.1162504
  -0.0693835  -0.5983909  -0.4180013  -0.0047564   0.2638719  -0.3195360
  -2.2748914   2.6434236   0.4282416   0.8786096  -0.3686129   1.1349984
   0.3210245   0.0194189  -0.2277621  -0.2198070  -2.5600326   0.9216679
   0.1820742   0.1190530  -0.3504772   0.1731012  -0.2003850   0.4357744
   1.2084695  -0.3750213  -0.0619561  -1.6538002   0.1970189   1.4296364
  -0.1056819  -0.0639407   0.0174314  -1.9508893  -0.2684889  -0.4081219
  -0.0977810   0.5213044  -0.2242781  -0.1190134  -0.1358641  -0.3203245
   0.1427861   0.2066079   1.8457574  -0.2666446   0.5384650  -1.0726819
  -0.2074246  -0.1878663  -0.1820147   1.0962440  -0.2972065   0.8975902
   0.6549305  -1.5487022  -0.2358766  -0.0729530  -0.1732611   0.0235646
  -0.2846318   0.6720976  -2.0841167   0.8121793  -1.1463574  -0.0595553
  -0.0026968  -0.0551178  -0.2922634  -0.1822826  -0.0924953   0.1710037
  -1.7020133   1.0632527   1.9209391   0.3762000   0.0758502  -0.0919779
   0.7865555  -0.6285616   0.1019356   0.0042352  -0.5093611   0.8818019
   0.1405680   0.0757956   0.0640879  -1.2082434  -1.1199732  -1.7802157
  -0.5068589  -0.6288583   0.5022994   0.0035506   0.1725771  -0.0475488
  -0.1375204   1.1287181   1.3501769  -1.1550689  -0.3329500  -0.2233203
  -0.0433531   0.0759160  -0.1099200  -1.1857197  -1.1383024  -0.8094454
   0.0683553  -2.1419175   0.5633849  -0.1919778  -0.4119001  -0.1483171
  -0.5721848   0.2003264  -0.4492635  -0.7402081   0.8800719  -1.0167305
   0.1330983  -0.2100721  -0.0590195  -0.4707720   0.2384813  -0.1959767
  -0.2005817   0.0512935  -0.8641939  -0.1984342  -0.2689074  -0.2826158
   0.0532466  -1.1258228   1.4156255  -1.5273143   0.4748768  -0.7024472
  -0.0510704   0.0631263  -0.1855893  -0.4348655  -0.3276853   0.0918162
   0.2080804  -0.9232795   0.6772667  -0.3463748  -0.4094829  -0.0986146
  -0.6419793   0.8994696  -0.7157548   0.8931419  -0.9559108   1.1980880
  -0.3139925   0.1267955  -0.2445170   0.6236713   0.0133533  -0.8007199
  -0.2938519  -0.6551804  -0.9281160  -0.2443308  -0.0186333  -0.3813976
  -1.6552566  -0.8748905   0.3212580  -0.2138546   0.0579739   0.3399663
  -0.0817453  -0.0421466  -0.0838199  -0.0755915   1.9697847  -0.3842259
   0.4741830  -0.5237511   0.0103599   0.0055639   0.3020783  -0.0416851
   0.7642012  -0.3011383  -0.1333036   0.8314579  -1.5333513  -0.9052191
   0.0734278   0.1256211  -0.4163307  -0.4758886   0.1430673   0.4739497
  -0.1400147  -0.0152809  -0.0445225  -0.1318652  -0.1822390   0.0372074
   1.4628328  -0.2750286   1.7486976  -0.8829632  -0.3520830   1.1280689
  -0.2497387  -0.3050306   0.1151573  -0.3498413  -1.9048923   1.0307343
  -1.2079935   0.0702132   1.0369816  -0.1273404   0.0026438   0.1716018
  -0.5000618   0.8435562   0.7164697   1.2850856  -0.7283157   0.6860507
   0.0907443  -0.2017528   0.1239781   0.7683201  -0.2784511  -0.3701498
  -0.1842175   0.3597060  -0.2660314  -0.4236004  -0.2806319   0.1561844
  -0.4164214  -0.0859964   1.1615908   0.0130084   1.6934216  -0.6556361
   0.4285410   0.3414521  -0.1289525   0.5786956   1.0096278  -0.2245883
  -0.0421307  -0.2215898  -0.5426436  -0.2260501  -0.0183048   0.2059072
   0.6982625  -0.1304048  -0.2018726  -0.3389465  -0.3339840   0.1189790
   0.0846478  -0.0421316  -0.1936844  -1.4587567   0.3176812   0.5434061
   0.6315972   0.5384054  -0.1082614   0.0048546  -0.0409447  -0.1608616
  -0.0587086  -0.4002688  -0.0388341   0.0453833   0.8031800   0.7212220
  -0.2409744  -0.1113579   0.1375456   0.4772591   1.0431091  -0.4517999
  -0.4327442  -0.0718249   1.1423224   0.2894386  -0.1291906  -0.2405853
  -1.1724033  -1.6145530  -2.0521257   1.3689296  -0.2620556   0.1159077
   0.1177686  -0.0138800  -0.3020253   0.6078317   1.1461685   1.2344167
  -1.3519385  -0.7612185   0.6291170   0.1113834   0.5660138   0.2185276
   0.0745955   1.1139359   2.0736718  -0.8011518   0.7425288  -0.2892660
  -0.1217695  -0.0297955  -0.2150021  -0.0769436  -0.7931451  -1.9902871
   0.9833737   0.3588605   1.0113190   0.3753888  -0.3116673   0.1794167
   1.1635834  -0.1607673   0.8430890   0.5266880  -0.6761611  -0.2744140
  -0.2839701  -0.0648908   0.1927977   0.0754100   0.4373501   0.1838166
   0.6460745  -0.1331312   1.2881695  -0.1593568  -0.1190186   0.0560591
  -0.3916299   2.0303168  -0.7811951  -0.0091916   0.3155804   1.3069019
   0.0217596  -0.4576446   0.1322730  -0.2899312  -0.3516470  -0.5016397
   0.1066146  -0.3798569   0.0682319   0.0155730   0.2373650   0.4248991
  -0.6568248  -0.1546430  -1.0301331  -0.7381702  -0.8057773   0.4384173
   0.0559955  -0.2526830   0.0739674  -0.8869417  -0.1806596   1.2968035
  -0.6310421  -0.7373737   1.4413316   0.0273283   0.4161221   0.2393878
  -0.8894910   0.5558762  -1.3293405  -0.6730229   1.1093490   0.3360219
  -0.0504972   0.1153884  -0.0012539   1.0371925   0.3600119  -0.5001138
   0.1541314  -0.1068096   0.0677840  -0.2654149   0.1609195  -0.2857145
   1.2534214   0.2950289   1.1518656   1.1001365  -0.1673230  -1.1546255
   0.0688684   0.1180471  -0.1169258   0.0943042  -0.0414570   0.0214989
   1.2355856   0.7231613   0.5641109  -0.1756799  -0.1904401   0.2873099
  -0.3075204  -0.3217784   0.1599918  -0.0424427   0.1458757   0.3558561
   0.2391740  -0.2290658  -0.4309133  -1.4015336   0.1004966   0.4898727
   1.0534247  -1.2900543   0.2363320  -0.1094851  -0.2427457   0.0637420
   1.4912307  -0.4225110  -0.3059446   0.7869340   0.9295299  -0.9756265
   0.1274134  -0.2309052   0.1386390  -0.7827542  -0.5281736  -0.0630385
  -0.6502807   0.4242901  -0.5839840  -0.0134723   0.5267695  -0.0810514
  -0.9365009  -0.5260434   0.0183675   0.1408327  -1.1139644  -0.1348619
   0.1435249  -0.1207544  -0.0482294  -0.1590728  -0.0014132   0.0454853
   1.1141959  -0.1774909   0.4149621  -0.0331741  -0.1769417  -0.0599137
   0.6012365  -1.0767161  -1.5527592  -0.5698339   1.6410960  -0.2387955
   0.0831480   0.3593521  -0.1117997  -0.5437191   0.1561444   0.1576534
  -1.2573497  -0.2760582   0.6887923  -0.5692162   0.1565809  -0.1789997
   0.9853557   0.5571280  -0.5839574  -0.0888007   0.6395500  -0.0460002
  -0.1650332  -0.2830164  -0.0198542   0.9705727  -0.1594221  -0.7850436
   0.8045545  -0.7827388  -0.0570903  -0.3439440  -0.0917363   0.3140583
   1.8061491   0.4522796  -1.1209469  -2.0006926  -0.2171857   0.0933517
  -0.0401873  -0.0981968  -0.0502155  -0.1601964  -0.0509389   0.8338212
  -0.8272893   1.8654881  -0.9590188  -0.5169196  -0.2222585  -0.4679435
   0.7694728   0.3685891  -0.4415594  -2.4343164  -0.1133189  -0.8695986
  -0.2680896   0.0213428   0.1184538  -0.4960182  -1.1550608  -0.3322656
  -0.2018634  -0.0797692  -0.2909440  -0.3568834   0.3690256  -0.1503201
   0.1389119  -0.5909598  -0.2972889  -0.1596369  -0.7112628  -0.4036196
   0.0479248  -0.0656556  -0.0383566   0.4129651   0.5507175   0.6352564
   0.5322228  -0.9780797   0.8037249   0.0779287  -0.1362422  -0.3240531
   1.0572984  -1.2533014   1.0634211  -1.8670881   0.5022243  -0.7271512
  -0.1495432  -0.1621722   0.0428780   1.1358681  -0.3238259  -0.2930636
  -0.3810624   0.2217581  -1.3865348   0.1867844   0.3708504  -0.0565417
   0.3986871  -0.3129318   0.1472907  -0.3208794   2.1249762  -1.0860943
   0.0405863  -0.1051701  -0.1340454  -0.0569848   0.2934101   0.6056778
  -0.6192450  -0.2356559   0.1977977  -0.0084559   0.1723853   0.2331698
  -0.3086325  -0.7259474  -1.0162201  -1.2563577  -0.8877410  -0.8735890
  -0.2870694  -0.1282141   0.3600598   0.8920925  -0.3595093  -0.0516218
   0.3655655  -1.4764441   0.6982719   0.3036370  -0.2206115   0.0712323
   0.3180673   0.8823193   0.6676146   0.3875771   1.0921414  -0.5985166
  -0.2562430   0.3867455  -0.1472282   1.3328682  -0.3298454  -0.1968772
  -0.1118153  -1.4278754   1.5371226  -0.0220444   0.1730438   0.2280823
  -0.5984650  -0.3370159   0.4543701  -0.6482993  -0.3164406  -0.8608346
   0.0717066   0.1232705  -0.2918356  -0.1805413  -0.4990231   0.2558827
   0.6908869   1.0720760  -0.2018910  -0.1589779  -0.0048483  -0.1199639
   1.2187322   1.3889706   1.2689662  -0.1186319  -0.2353373  -0.3881550
   0.2693988   0.0406617  -0.0955465  -1.0904213   0.3266478  -0.3638913
   0.7861714   1.4004902  -0.0069916  -0.2234870   0.0610352  -0.0713776
   0.4771233  -0.2550865   0.0147671   0.5432172  -1.2885009  -0.4566167
   0.2104990  -0.2368550  -0.0702489  -1.4586989  -1.3815771   2.0070877
   0.3915821   1.2621880  -0.1471174   0.1437792  -0.1519515  -0.0059022
   0.9974827  -1.2807840  -0.2143492   0.0448150  -2.1127563  -0.4680730
  -0.2688276  -0.4732153  -0.2595171   0.8785089   0.7249977  -0.1156113
  -1.5262840   0.8962639   0.1425487   0.1961035  -0.3111005   0.1840839
  -0.1565116  -1.0650229   1.0847610   0.3697065   0.8379746   1.2054701
  -0.1910505   0.0003040   0.0983376   1.1978854  -1.1442658   0.4726529
   2.0829005   0.2488872   1.3679080   0.1611563  -0.0139730   0.1920535
   0.2327615   0.3469159   1.1713486   0.4977667  -1.1203184  -0.1763098
   0.5676106   0.1374243  -0.1348020   0.1312685  -0.9941631   2.3942826
  -0.4980503  -0.8119738  -1.3594155   0.0809173  -0.2064432  -0.4457586
   0.0343653  -0.6960753  -0.5832769   0.2944110   0.1431956   0.2167595
  -0.0616126   0.4612584  -0.4781142   1.5117952  -1.5272557   1.4033160
   0.0863716  -0.4505480   0.0629276  -0.1242668  -0.1485766   0.4050395
  -0.4623228  -0.2107375   0.5416195   0.1173017   0.4556178  -0.1991846
   0.2434657  -0.1481495   0.1158978   0.1310756   0.6720080   2.2620246
  -1.1508056  -0.1218567  -0.0425755  -0.2663108  -0.0943080   0.0619869
   0.2373274  -0.7492407  -0.7022986   0.2713631   1.6788734   0.2449093
   0.0677104  -0.2001961  -0.0678669   0.2856706  -0.2992522  -0.6529192
   0.5104224   0.1434620  -0.5468349  -0.1313612   0.1675310  -0.1165437
   0.0193034  -1.1716888  -0.9793251  -1.4192142  -0.3933598   0.4430808
  -0.1153742   0.3002563   0.2634456   0.4162653  -0.2354590   1.0297232
   0.3719315  -0.3075811   0.4326023  -0.0643784   0.1685315  -0.1166766
  -0.8970510  -0.6680254  -0.6243334  -1.3940680  -0.7406836  -1.4155855
   0.4766922   0.0976145  -0.1748387  -0.4446157   0.5412149  -0.4528306
   0.9549823  -0.6466265  -0.0054365  -0.1346959  -0.1565361  -0.2022505
  -0.8260037  -1.2470368   1.1812930  -0.3450965   1.7651044   0.9777676
  -0.0409364   0.3897587  -0.1760767  -0.5822300   1.1632245  -0.9130145
   0.8495496   1.8210515  -1.4461241   0.1205970   0.0885671   0.2138354
  -0.8012381  -0.5759006   0.6043202   0.0687653  -0.1098444  -0.3939206
  -0.0039505  -0.0698674  -0.2619219   0.2364146   0.7500706  -1.0931103
   0.1512705  -0.6641958   0.3451127  -0.0851284   0.3318456   0.1043527
  -0.1851055   0.3021906  -1.2092011  -0.3361429  -0.4122128  -1.6457407
   0.0885855   0.3682733   0.0494182  -0.5205913  -0.0525953   0.1581912
  -0.7089317   0.7255523   1.8728625   0.2749665  -0.0551658   0.0076232
  -0.5939237  -0.0400421  -0.6373150  -0.6617543  -0.0725578   0.0950193
   0.1452869  -0.4410724   0.1801091   0.0560029   1.7193305   0.3326001
  -0.8954228   0.1771697  -0.6480004  -0.0872797   0.1368608   0.0017179
  -0.0384009   0.3643031   0.1005669  -0.9985068   0.0696810  -0.0673510
  -0.1059018   0.2222843   0.0015816  -0.7239553   1.0875510   1.5115474
   0.3329667  -0.2519897  -0.1897346  -0.2184425  -0.0051638  -0.1063409
  -1.4210883   0.4765714  -0.3844506   0.3284337   0.9567655  -0.3701130
  -0.1500169  -0.1068250   0.1781568  -0.2625032  -1.2442706   0.0832298
   0.2405356   0.9016115   1.2068728  -0.1796687   0.1568602   0.0044008
  -0.9037015  -0.8025799  -0.2163389  -0.4373159   0.1013805  -0.9545998
  -0.0584347   0.0076632  -0.0103184  -0.4881949   0.4195190   1.2998103
   0.8102524  -0.7666827  -1.2355899  -0.0721959   0.2878975   0.0840963
   0.2797768  -0.3103179  -0.6503533  -0.0725788  -0.4189862  -0.6624182
  -0.0730580   0.0812120   0.0796361   0.5329205   1.4831154   1.3541170
   0.8668132   0.1531094  -0.4776098   0.1134712   0.0933826   0.0692889
  -0.4702067  -0.2052735  -0.2178325   0.7989694  -0.5402169   0.0499132
  -0.0739173   0.4018470   0.1751710   0.7665334  -0.5742468  -0.0001802
   0.3995211  -1.0541610  -1.0729427  -0.3432851   0.1025066  -0.2713611
  -0.1231230  -2.3364515  -0.2079953  -0.5952879  -0.3403149   0.8652898
   0.0569958  -0.0981951  -0.2052415  -0.2656466   0.2523092   1.2286019
  -0.2788854  -0.4659950  -0.6438406  -0.0859339   0.2446157  -0.2912906
  -0.1419267  -0.0855802  -0.0991449  -0.3358124   0.1002582   1.5077946
  -0.1962893  -0.1431226   0.4168451  -0.3207730   0.1526667  -1.7770633
   0.2139301   1.1331811   1.1326065  -0.1838710  -0.0580281  -0.0307667
  -0.0202721   0.2522165  -0.0204577   0.2161278  -0.7857103   0.5927320
  -0.2823019   0.0737451  -0.1716017   0.9342334   1.8701347  -1.3257226
   0.7335840  -0.9901468  -0.2037092  -0.0766091   0.0135264   0.0461936
   1.7438110   0.2188472   0.2110598  -0.6212031   0.0817207   0.2355676
  -0.0250042  -0.2968037  -0.1933680  -1.9631226  -0.3685395   0.7623352
   0.5223336  -0.3038510  -0.1613132  -0.1663660   0.0092072   0.0728526
   0.0461212   0.5565238   0.0454951   1.1070005  -0.2572400   0.5381047
  -0.1776828   0.3097221   0.0304896  -0.7990662   0.3633775  -0.3324042
  -0.0732967   0.1467741  -1.3674389   0.0507203  -0.0068106  -0.1243129
   0.4184942  -0.3046120   0.3684558  -0.3491146  -0.5899251  -0.1611687
   0.2210606   0.1233780  -0.0905149  -0.5404773  -0.9754415   0.1175828
  -0.7466091   1.3853986   0.6435223  -0.1512817  -0.0596485   0.0868194
   0.6824424  -0.0205821   0.4773816  -0.4991825   0.0521128   1.0974827
   0.0822178   0.0699587  -0.1505806   1.3826700  -0.0362256  -1.3523197
  -0.5685139  -0.5707108  -0.6606277  -0.4102637   0.1737237   0.3718364
   1.3550588  -0.9265749  -0.0715920  -0.2890464  -1.1290466  -0.0884041
  -0.2477136   0.1545370   0.0563899   1.2953172  -0.1578093   0.7901881
   1.6526541   1.0294741  -0.3057243  -0.3287803   0.0866081  -0.0476370
   1.2328533   0.4254653  -0.4542318  -1.5605555  -0.5761218  -0.5676345
   0.0454612  -0.2126159  -0.0601576  -0.8791157   0.2409109   0.8097262
  -0.0308966   0.4436415   0.7653968  -0.0300720   0.1943678   0.2350653
   1.8650125  -0.6921956  -0.6232806  -0.5834998  -0.3672094  -0.1040342
  -0.1040474   0.0078719  -0.1205056   0.3145303   0.4582233   0.7902745
  -1.8087846   0.0504398  -0.2313662  -0.1472181  -0.0713110   0.0795553
  -0.5430518  -0.6619874  -0.8994312   1.3165442   1.1453612   0.0435777
   0.2608536  -0.8293114   0.0334941   0.8870636  -0.1815755   1.0420070
   0.7105634  -0.4712114   0.7430698   0.0179553   0.4009263   0.0314045
   1.2098432  -0.1389257  -0.0383517  -0.1805179  -1.0833323   1.2086033
  -0.0890668  -0.1355028   0.4018888   0.2820994   0.6130363  -0.3309813
  -1.0761373   0.2017215   1.0602500   0.0038730   0.1562865  -0.3971753
   0.7249515  -0.5436710  -1.0621970  -0.2004766   0.1469951  -0.7168421
   0.1511873  -0.2294753   0.1931229  -0.8098856   0.0614364  -1.0470042
   0.2680976  -0.1973123   0.6665921  -0.0569139  -0.2003696  -0.0303824
  -1.6033925   0.6680201   1.3441409  -0.7907164  -0.1121111   0.3342567
  -0.1143721  -0.5215240   0.3271675  -0.8400934   1.3437459  -0.1088206
  -0.1286848  -0.1130075   0.9595094  -0.0781868   0.0988895   0.0975486
  -0.7687463   0.2993111  -1.1579266   1.7756433  -0.0815270   0.3719411
  -0.0241195   0.0466730   0.1193243   0.0763786  -0.3135613  -0.0916370
  -1.0001708  -0.0805465  -0.5469923  -0.0286217   0.1805251  -0.3984800
   0.0830333   0.2467869  -0.9705720   0.6259068  -0.8455632   0.5125965
  -0.4143252   0.1360370   0.0710577   0.2912422   1.6624675   0.8315272
   0.5745224  -0.3585495   0.5081988  -0.0178501  -0.0650321  -0.3260366
   0.5222788   0.7837468  -0.5708267   0.3995882  -0.2048131   1.7720762
  -0.3848389  -0.1030858   0.0797467   0.1684623   0.5939487   0.0842602
  -0.4484180   0.1327574  -0.7269607   0.1476172   0.1815413  -0.0860569
   0.3517686  -0.0559724   1.1340929   0.3020674  -1.2787658   1.3420614
   0.0043700  -0.0225048   0.1212745  -0.5737609   1.0618852  -0.1014178
  -0.4900183   0.9115990  -0.2215012  -0.2478285   0.2008762   0.0728011
   1.5584882  -0.4904106   0.6624273   0.3690573  -0.5282434  -0.3589370
   0.0115974   0.1178806  -0.2085046  -1.4591488   0.0316361  -0.9607010
  -1.3310591   1.5312095  -1.4543415  -0.0953552  -0.1433925   0.0108192
   0.0227534  -0.2055581  -0.1053368  -0.5979625  -0.6281729  -0.1330142
   0.2345224  -0.2890571   0.1425591   0.4485952  -1.7443889  -0.4328479
   0.9706556  -0.0672478   0.5309940   0.0360637  -0.0846229   0.2077440
  -0.0740595   0.8552569   1.3540441  -0.1289933   0.8143154  -0.2768778
   0.0723413   0.0272194   0.0060614   0.3836165   0.7740673   0.9387037
  -0.0101532  -0.2021232  -1.1921177  -0.3630091   0.0070812   0.0225813
  -0.5496943  -0.3722240  -0.8047686  -0.8252261   0.4456353   0.0415509
  -0.2307031  -0.0825040   0.2284653  -0.1885093  -0.0985397  -0.8562033
   0.3283471  -0.4159514   0.4192463   0.2479564   0.1896587  -0.0062955
   1.1987698  -0.5615217   1.5940921   0.9205641   0.2597641  -0.0727554
  -0.0858163  -0.0403613  -0.0531976   0.6161208   1.8872067   0.5162487
   0.4744960   0.4660022   0.4728174  -0.0156537   0.4508986   0.5178749
   0.4742579   0.5490584  -1.4556351  -0.5773275  -0.3783056  -0.8416858
   0.1457967   0.0455203   0.4266189  -0.6701070   0.2993039  -0.3726259
  -1.6325600   0.7565399   0.9814721  -0.1837670  -0.0961630   0.0003620
  -0.6628476   1.2631410  -0.5911005  -0.3451144   0.0319294  -1.0650274
   0.2770700   0.0520008   0.0325390   0.5163108  -0.3986136   0.0890166
  -0.9111280   0.3880381  -1.0547931  -0.2817049   0.1768296  -0.2710729
  -0.5723078   0.6380489   1.4069693   1.0670127   0.5099244   0.9234950
  -0.0107179  -0.0555676  -0.0020807  -0.9545925   0.2020937   0.0412302
   0.0088322  -0.2146440   0.4534588   0.4728138   0.0938091   0.3318792
  -1.1383367  -0.4506392  -0.4715366  -0.7784445  -1.7861065   0.2181973
  -0.2336359  -0.0265992   0.3060756   0.1246992  -0.3859079   0.5396401
   0.6947871  -0.6246079  -0.1556968  -0.1902416   0.0518081   0.2551098
   0.0402808  -0.3053214  -0.0830142  -0.2196247  -1.1817899   0.0934860
   0.3194521  -0.1814269   0.2961867   0.0755599   0.8562109   0.9671114
   0.9704168   0.7577857   0.2283126  -0.1474879   0.4419149  -0.0753202
   0.7378290  -0.5358173   0.1394122   0.2935184   0.7288458   0.0686699
  -0.3326182  -0.1868046   0.0351731   1.0759821  -0.4117954  -1.5967474
  -1.5618199   0.1913904   0.7518308  -0.0821959  -0.3023238   0.1282147
   0.1276124   0.7263623  -0.1917490  -0.8592111   0.0907110  -0.7082195
  -0.1322748  -0.0155353  -0.4296634  -0.7936444  -0.4434095   0.7520740
   1.4457375   0.1632577   0.3819178  -0.0799628  -0.0565416   0.1944738
  -0.8407863  -1.4696051  -1.3262537   0.7163325  -0.7818325   1.0362182
   0.1174953  -0.3797571   0.2664372   0.2392652  -0.4420936  -1.0889114
  -0.2029250  -0.9253834   0.5191017   0.0786416  -0.2674656   0.0116523
  -0.5394271   1.3229482   1.0263046  -0.1559097   0.8062415   1.0327780
   0.0235531  -0.1595779   0.1875386   0.5442372   1.3595327  -0.0098322
   0.2541968  -0.8423617  -1.1049825   0.1386479  -0.0658847  -0.1397748
  -0.4922497  -0.2652936   0.3242978  -0.3506030  -0.1340136  -0.1419529
  -0.0677356   0.1672331   0.0168897  -0.9320598  -0.3353870  -0.2937447
   0.1331462   0.3333570  -0.4691366   0.0851662   0.1295820  -0.1165574
   0.1209995   0.7145557   0.3138906   0.1693223   0.3660662  -1.0150400
   0.1920900   0.0253920  -0.0504910   1.1539499  -0.1009256   0.7049200
  -0.7091535   0.5422854   1.0675567   0.0885570  -0.1374602   0.3699692
   0.4217295   1.0635061   0.3103448   0.8066695   0.0705401   0.9447254
  -0.1184663   0.1484940  -0.0600747   1.5029885  -0.5718771   0.8125049
  -1.2866313   0.1743543  -1.0042777  -0.0542807  -0.0997536  -0.3665117
  -0.5616953  -1.2377220   0.8299713  -0.1522209   0.7099581  -0.0863750
   0.0174043  -0.0242079  -0.0836342  -0.3025917  -1.2690500  -0.4908829
   0.6883795  -0.9547482   0.4226632   0.3354663   0.1099745  -0.1034449
   0.4503979  -0.3230322  -0.3532305  -0.5571514  -0.4572706   0.1734918
  -0.1390405  -0.2050085  -0.0586414   0.2658272  -0.6123667  -1.1341296
   1.1124640  -1.3152486  -0.8323406  -0.0807765  -0.0353129  -0.0703283
   0.9544760  -0.5866092  -0.4976530  -0.1983570   2.0553334  -1.0032862
   0.0327285   0.2360334  -0.1167621   0.6776749   1.1835880  -0.1106761
   1.3102227   2.3318603  -0.6267153  -0.0902973  -0.0177631   0.6199505
   0.0977223  -0.5971668   0.9723566   0.7178387  -0.5705611   1.3112292
  -0.6287549   0.0369871   0.0034623   0.4474011   0.4755965   0.2344187
   0.2441687   2.2583632  -0.3518245   0.0434661  -0.0361919  -0.3209930
   0.2115242   0.7020928   0.2094840   1.6120582   1.7892084   0.2968655
   0.0771978   0.3475391  -0.0497371  -1.1605844   0.5308875  -0.8046171
  -0.0409376  -0.4034455   0.5628538  -0.0793274  -0.0774047   0.2961892
  -0.9469213  -0.3342986  -0.2515509   1.3616149  -0.5867445   0.2173056
  -0.3391230  -0.1751130  -0.2541427  -0.1490736  -1.0117882  -1.7797173
   1.2243587  -0.9885392   1.6599684   0.2615533   0.1297639  -0.1846316
   0.1313235   1.2732947  -1.3009729  -1.2895335   1.2023931  -0.3147337
   0.3438814  -0.2526525  -0.0191775   2.1146729   1.8835050  -0.0816626
  -0.4661247  -0.4947953  -0.4924667   0.0191131   0.3331764  -0.2063200
  -1.9640746   1.1121905  -0.6751083  -0.0426750  -0.8970662   1.5583260
  -0.6266167  -0.0353934  -0.1095678  -0.3052995  -0.1291807  -0.7659283
  -0.1159674   1.0971249  -0.2200454   0.3153341   0.0330005   0.0246052
  -0.7232714  -0.1350129   1.1402645  -1.4564548  -1.3730829  -0.4779518
  -0.0238474   0.1702329   0.2069278  -0.0165211  -0.7598627  -0.3158180
  -0.2647600  -0.1582781  -1.1548829  -0.2736116  -0.1486195   0.1551342
  -0.5363020  -0.8550305   0.7317462  -1.2978156  -0.7768015   0.1945887
  -0.1735294  -0.0329148  -0.0644800   0.4839435   0.7368919   0.8568299
  -0.5014127   0.4972408  -0.7553489   0.0803639   0.1493164  -0.0900051
   0.6237698  -0.4764515  -0.5986384   1.1573554  -0.8892600   0.9714756
   0.2458609   0.1398536  -0.1027157   0.5016150   0.0038222  -1.5754402
  -0.2965350  -0.1488889   0.8657756   0.1105467   0.0190260  -0.0795629
  -0.6052269   0.8698623   0.6608731  -0.3501544  -0.6684654  -0.0949935
  -0.0020679  -0.3560879  -0.1564270  -1.4385581  -1.1691239  -0.8398840
  -0.3735396  -0.9149727  -0.5084995   0.1532466   0.0848384  -0.2420401
  -0.0002451   1.2968338   0.5941831   0.7691816  -0.1147523  -0.6444499
   0.0483501  -0.1954361   0.1714012  -1.5145634   0.7947889   0.2321189
  -0.7386073  -1.0326526   0.9566088  -0.1340730  -0.1829522   0.0562029
   0.9723196   0.6411403  -0.1137885   0.3870291  -0.2913816  -0.5028608
   0.0550067  -0.1813743   0.2152172  -0.0066406  -0.3348857  -0.2838625
   0.3144000  -0.4839367  -0.9596975   0.0988467  -0.1718684  -0.2642840
  -0.3370706   0.6710512  -0.3829756   0.9732662  -1.4673783   0.9155732
   0.3145255  -0.1640675   0.2207575  -0.6424976  -0.9640452  -0.6200616
   0.0869065  -1.4199202  -1.0476408   0.0236546   0.3655947  -0.0522220
   0.4500083   0.3912928  -0.7611161   0.8928571  -1.0338606   2.1905429
   0.0773602  -0.1653966   0.1051656  -1.0076311  -0.4932753  -0.3182387
   0.2541591   1.3728188   1.1195279  -0.2664383  -0.1223832  -0.0403916
   0.6791608   0.3739064   0.5327806   0.1720666  -0.3442977   0.4872879
   0.0677983   0.0171625  -0.0493089   0.8559005  -1.2964228   0.4910869
  -0.3745308   0.7381178   0.5084630   0.1271148  -0.2012193  -0.0610881
   0.3406139   0.4198812   0.2477754  -1.0901395  -0.7164400  -0.4586483
   0.0721903  -0.1074754  -0.1221591  -0.0938801  -0.6948817  -0.3162200
  -1.0420222   0.4539954  -0.2837293   0.0951623  -0.1536093  -0.0501781
   0.0035523   0.1699965   1.1736096   0.3310609   0.1523220  -0.4217301
   0.1345486  -0.1788102  -0.1783777   0.5315082  -1.0127803   1.1134015
  -0.0066024  -0.9634094  -0.5171185   0.3166899  -0.0679985   0.2585776
  -0.1634445   0.1539619   0.7539427  -0.4598092   0.0123732   0.3541757
   0.1558944   0.0432939   0.1529858  -0.4157600   0.2428706   0.8835477
  -1.0697155   0.3346275   0.6936876   0.4120449  -0.0057320  -0.2814033
  -0.6309536  -0.8320431   0.5878031   0.4416560  -1.5408140   0.4034189
   0.1710729  -0.3101934  -0.1407232   0.2457854  -0.4566519  -1.0349883
  -0.2653087   0.9574779   1.1259707  -0.3102615   0.2397588   0.2596097
   0.4597707  -0.4782200  -0.4745021  -0.3586607  -0.3847754   0.0202207
  -0.0815362  -0.0347689   0.3300782   0.1099327   0.5322974  -0.8075544
   0.3533367   0.4783538   0.0529426   0.1603839  -0.3307013   0.0094787
  -1.0191947   0.5446014   0.5014465   1.0537764   0.1820437  -2.4298985
   0.6143135  -0.3271297   0.0906532   0.0861274  -0.7219160  -0.4369771
  -0.0988966   0.3067763   0.1688528   0.1032384   0.2038328   0.1651854
   1.3383099   0.2305321  -1.2648669   0.3120303   1.2312574  -1.0213574
   0.4690437   0.3538094  -0.1897375  -0.2936215  -0.0426800  -0.8347186
  -2.0116003  -0.3013423   1.8445235  -0.3646007  -0.0234135   0.3346024
  -1.2866449  -0.0841689  -0.8082036   1.8391168   1.4070431  -0.1415383
  -0.1827122  -0.1788039  -0.1229433   0.5849525  -0.1299448   0.1469012
  -0.9508803   0.7935498   0.9681433   0.1193966  -0.1617347   0.3404849
   1.2424043  -0.4445689   0.7001776   0.2717059  -1.6439078   0.1507080
  -0.0470722  -0.0136312   0.2063015   1.1173131   1.0462565  -1.3202766
   1.8065077   0.8576251  -0.7616020  -0.0500400  -0.2712947   0.2993665
  -1.8028468  -0.3044966   0.7393172   1.2182331   0.0128005   0.1717726
  -0.0732875   0.0234962  -0.0599032  -0.5202866  -0.3946733  -0.3733635
  -0.9280154   0.0064603   1.2189766  -0.1839038   0.0866545   0.0311936
   0.7055657  -0.4092745  -0.1571651   0.4853914  -0.7385765  -0.2183230
  -0.1442710  -0.0012837   0.0492386  -0.0608718   2.1202328  -0.6112062
  -1.0711991  -0.3273835  -0.4657800  -0.2937686  -0.2360995  -0.2118329
  -0.3132536  -0.4899042   0.8456494  -1.1241736  -0.0904812   0.4391955
   0.1012947   0.5795831   0.2321430   0.2471268   1.4335961  -2.7170546
   0.1183659  -0.1729670   0.4961028   0.3324059  -0.2072313   0.0233336
   0.3229177   0.2161496  -0.3016446   0.0957477  -0.5896720  -0.7433199
   0.0730034  -0.0009351  -0.1252443   1.6573559   1.0509549  -1.4253672
  -0.9381736   1.1803030   0.2650948   0.0871991  -0.0028034  -0.0107060
   2.0051079  -0.0789396   0.6471935  -0.1529358   0.0477276  -1.7365375
   0.0855426  -0.2328940   0.3737462   0.8049827  -0.6104795  -0.3131551
  -1.2136577   0.7554044  -0.6202917   0.2375151   0.1620320  -0.0963683
   1.2823794  -1.6707613   0.1445678   0.0610856   0.3120306   0.4554315
   0.0979177  -0.2035451  -0.2928657   0.5790153  -0.7255787  -0.6834990
  -0.1030697  -0.2333397   0.4849684   0.2085933   0.2385369   0.2586957
  -1.0255457   0.3810772  -0.1541365   0.9609740  -0.0847840   0.1071588
  -0.0424463  -0.3019717   0.0088066  -0.1353194  -0.8731052  -0.5768567
   0.7933524   0.5688230  -0.1995303  -0.0463285  -0.5845619   0.2160600
   0.7577478  -0.9780060  -0.0270879  -0.2132573   0.3036643  -0.1355197
   0.1782809   0.2478404  -0.3239241   0.4777634   0.9455567   1.6546335
   1.2964493   0.5281463  -0.3789443   0.0915814   0.2382002  -0.3665525
  -0.8973362  -0.1016936  -0.2478423  -0.9021555   0.7521969   0.0262711
   0.3985751   0.2624592   0.2060098   0.2721555   0.6255558  -0.5021606
   0.1457645  -0.0609604   0.1430065   0.0523045  -0.1696403  -0.0675592
   1.4489635  -0.0332448  -1.0469333  -0.1159621  -1.8398751   0.5633888
  -0.4805225  -0.0899661   0.0598215   1.5701325  -0.5022449  -0.9210781
  -0.3188591   0.5930607   0.6751787  -0.2094599   0.0844811   0.1183559
  -0.9515176   0.1209009   0.3677852   0.5794718  -0.0802492  -0.1791583
   0.0177924   0.3478283  -0.4599551  -0.0777791   0.7102514   1.2186745
   1.3999041  -1.0700527  -0.1875412  -0.2636320   0.5316613   0.0070014
   0.5994925  -0.0500204  -0.1598051   0.1906909  -0.2189727   0.0949444
   0.2108296   0.1973306   0.2902090   0.1528587  -0.3336409   0.3837218
  -1.0711586   0.0352898   0.9908413  -0.1036953   0.1817635   0.0462257
  -0.4885676  -0.4027491   0.3967904   0.2533631  -0.0525429   0.9544529
  -0.1396881  -0.0963629  -0.0586243  -0.5023528  -0.2393503   2.1078274
   0.0265397   1.1247356   0.0970810   0.0392808   0.0103522   0.2490599
   1.2210337  -0.4029058  -0.5973449  -1.6485789   0.5136076  -0.2535244
   0.1469678   0.1234980   0.0690750   0.0978388  -0.2139869  -0.7586984
  -0.6685815   0.0647879  -0.8343284   0.0006650  -0.1396570  -0.0475012
  -0.3721868  -0.4008087   0.6760401  -0.0336582  -0.5241792   0.7097194
   0.2937471  -0.2446717  -0.1229731  -0.4368923  -0.4862898   0.3600431
  -0.3243937  -0.5254163   0.0963412  -0.3767415  -0.1500726  -0.4050810
   1.5067600  -0.5963658   1.3239043   0.6916990   0.5565041  -1.2231926
  -0.3027752  -0.2711268   0.4561385   0.3792636   1.0946032   0.2043652
  -0.4684961  -0.8494171  -0.2322134   0.0311962  -0.0519630   0.0329127
  -0.8558321   0.3673253  -1.1267245   1.4854423   0.5639393  -1.0085316
   0.0074183  -0.1264958  -0.2875930  -0.2496825  -0.9615393   0.0759282
   0.1647404  -1.0806658   0.3361920   0.1069754   0.1990119   0.0139079
  -0.8242050  -0.2430309   1.1914799   0.6608400  -0.8985590  -1.2817112
  -0.2545894   0.2937778   0.0436743   0.0223451   1.3316429   0.5085551
  -0.1582989   0.1145296  -1.5990964  -0.1660509   0.1744626   0.1524967
   0.2220476   0.8393349  -0.1284425   1.7498055   0.7895830   1.2671356
  -0.0802015   0.0111301   0.1748669   0.4437776   0.0817701   1.0852159
  -0.9281731  -0.1219935   0.2724171  -0.1076208   0.0861237   0.1535031
  -0.5150396  -0.1338450   1.5967538  -0.9086675   0.3636585  -1.4687399
  -0.2468501   0.1695179  -0.0044917  -0.5840468  -0.6236194   0.6767364
   0.7584627  -0.8423805  -0.4142311   0.2062092   0.2822824  -0.0609383
  -1.2137318  -0.6155834   0.3789227   0.6661932   1.2274158  -0.0088290
  -0.0930973   0.0702033  -0.0469724  -1.0815464  -0.1402531   0.8365765
  -0.8681561  -0.0588042   0.3672337   0.0649179  -0.2549271  -0.1822933
   0.9612404  -0.3599441   0.1619700   0.2201219   0.8491244   0.0877468
   0.0232381  -0.2147938   0.0727182  -1.1656026   0.6610797   0.1831800
  -0.7858259   0.3918487   0.5382748   0.1802212  -0.1296149   0.0535702
  -0.2403121  -0.1904378  -0.2898769   0.1479241  -0.3745425   0.0651055
   0.1566147   0.1948869  -0.0109822   0.9641610  -0.1550460  -0.4530493
  -1.6192206   0.2317247  -1.0279812   0.2411701  -0.0161853   0.4317271
   0.7415175  -0.0447732  -0.3530236  -0.7296574   0.2653527   0.0083983
   0.0767116  -0.1328931   0.1041467  -0.8140411   1.2559862   0.0346321
   0.2493172  -0.7163689  -1.0443344   0.3840748   0.1411915   0.4157191
   0.3773967  -0.7459127  -0.8114167  -1.2766228  -0.2529598   0.6921649
  -0.2391494   0.0625542   0.1027161  -0.1286851  -0.6310136   0.8360838
   0.3250893  -0.0260666   0.5930387  -0.3469037   0.0679603   0.2814378
   1.0965332  -0.2345076  -0.0302468  -0.2329312   0.5791616  -1.8793000
  -0.2000005  -0.0200590   0.2231186  -0.1660786  -0.3534724   0.8646035
   1.2483728  -0.0735418  -0.2646443   0.0148698  -0.4078741  -0.0366805
   1.6426313  -1.2093896  -1.2369806  -0.8717566   0.9884833   0.0691034
  -0.0445294  -0.0019314  -0.2572501  -0.7097192  -0.4891911   0.7142574
  -0.0470188  -0.0135880  -0.3965762   0.1356678   0.1498040  -0.1789032
  -1.2008340   0.6604570  -0.1496623   0.3646797   0.1895904  -0.0641350
   0.1867486  -0.3224152  -0.1132932   2.2679830   0.3744770  -1.0683696
  -0.8689109  -0.4967261  -1.7406070   0.0143944   0.1164736  -0.2422590
  -0.7832551  -0.0024417   0.8711123   2.1404271  -1.1908273   1.3461713
   0.0908611   0.0079396   0.0746279  -0.4802176  -0.3390496   1.4426544
   0.0105701  -0.1467480  -0.0469417   0.1645454  -0.1282422   0.0904639
   1.6674228   0.1035369  -0.7739578   0.0342047  -0.6606749  -0.6718271
   0.2255906   0.0475117   0.0930375  -0.7689297  -1.2614839  -1.2429075
   0.0417222  -0.3547334   0.3653104  -0.0735519  -0.4301664   0.2670889
   0.5301735   0.8881751  -0.5197735   0.4018441  -0.5977166   0.3303342
  -0.3171108   0.0175478  -0.0187486  -0.1623874   0.5376049  -1.1551886
  -0.0012747  -0.1929997   0.0345081  -0.1491044  -0.0649207   0.0694787
  -1.0294483   0.0341991   1.2623674  -1.2642004   0.3471700   0.3942567
  -0.2324264   0.3309947   0.0771894   0.9232220   0.4302383  -0.5200868
   0.3659120   0.2634414  -0.3072457  -0.4210533   0.0534177  -0.0098482
   1.2766087  -0.0413887   0.7018079   1.1352707   0.1299707   0.3075060
  -0.3641093  -0.3483110  -0.3047761   0.0156616   0.0555968  -0.0912132
   0.4557690   0.2319934  -0.2880867   0.1912746   0.1472232   0.0054120
  -0.6314961   0.1841779  -0.3054237  -0.7313169   0.5701522   0.1271711
   0.0346780   0.3567578   0.2241898  -0.5747085   0.2929326  -1.2099888
  -0.5066236   0.4840158   1.9449005   0.2277947  -0.2009073  -0.0932689
  -0.6868499  -0.2210822  -1.4702399  -0.4294837   0.0496169  -0.8192066
   0.4376239  -0.0914747   0.0588932  -0.2460377   0.0730997   1.9358553
   1.0809426  -0.5244799   0.0209828  -0.0141345  -0.0442835  -0.0525827
  -0.8212827   0.3630982   0.2601418   0.1184819  -0.3872064  -0.1360891
   0.1064705  -0.0528307   0.0019689   0.1952618   0.2732932  -1.2029132
  -0.7360685   0.1169084  -0.6498736   0.2453576  -0.0356308   0.0087383
  -0.3738581  -0.6109156  -0.0602052   0.7812402   0.5670090  -0.9188704
   0.3015170   0.0248196   0.0526642   0.6622002   0.3750475   0.2770241
  -0.8375680   0.6913263   1.3744891   0.0437101   0.0056696   0.0118427
   0.4333788   1.1320992  -0.2606874  -0.1011954   1.6777021  -1.4049757
   0.1868967   0.2463320   0.1583892  -0.9544123   0.0293885  -0.2320951
  -0.0021254  -0.1755187  -1.5066133   0.2308930  -0.1233600  -0.1001582
  -0.1346458  -0.0971636  -1.1088983   0.4404340   0.5922487  -0.2281691
   0.0786546  -0.4033556   0.0162217   0.7223550  -0.7356725  -0.0281203
  -0.6984462  -1.1962974   0.8342005   0.2638295  -0.1003457  -0.2721280
  -0.0984381   0.4836439   0.7753530   0.3954249   0.9023168  -0.1414040
  -0.1976599  -0.0937060   0.4032955  -0.3286246   0.0375973   0.3360615
  -0.1817199   0.5164191  -0.4563699   0.3088733  -0.1983332  -0.1096288
   0.2867384   0.8362160  -0.3602042   0.8069543  -0.9126998  -0.2068105
  -0.1019668   0.1670078  -0.2403045   0.5805799   1.9931973  -1.0622196
   0.4878487   1.0751522   0.1186219  -0.4273110  -0.0172607  -0.0391440
  -0.0406405  -0.4775634   0.1403761   0.8020279  -1.1846596  -0.8228286
   0.1355493  -0.2095463   0.0298789   0.3260738   0.3675723  -0.7067972
   0.4130729  -0.9482995  -0.7575336   0.0437256   0.2030706  -0.2236964
  -0.0693401  -0.8027673  -0.9904059   1.3034062  -0.1921464  -1.4348301
   0.0819821  -0.2552691  -0.2130209  -0.4216094  -0.1499068  -1.3125045
  -0.4446684  -1.6640736  -0.5257887  -0.0096827  -0.2404146  -0.3880275
   0.4049263   0.3535684   2.2278671   0.0129476  -0.6762260   0.0893757
  -0.2604337  -0.2915423   0.1685140  -0.2702128  -0.3019354   0.1758336
  -0.0181600   0.9859889  -0.4572699   0.0304472  -0.1515128   0.2923741
   0.8882374   0.7684055  -0.0167620   0.5470317   1.0542809   0.1940152
   0.1486404  -0.1203639  -0.2329450   1.6552603  -0.1319639   1.1569594
   0.0436826  -1.2069420   0.2988887   0.2149514   0.2494063   0.2205954
   1.0035375  -1.8108521  -0.5236596   0.6950438  -0.5265421   0.2313106
   0.0968718  -0.3456230   0.1705826   0.7590318   1.2583447  -0.4704469
   1.0953002   0.0646016  -0.8650939  -0.0770120  -0.2321835  -0.2115543
   0.0051071  -0.2493002  -0.2279375  -0.5493212   0.7044399  -0.1733422
   0.0784700  -0.0230081  -0.2225188  -0.2627985  -0.3458888  -0.0680941
  -0.3352777  -0.3282958  -1.1970593   0.0618786   0.1429334   0.0940956
   0.4593626   1.0242993   0.4034396   1.4102296  -0.3211378   0.6684877
  -0.1651054  -0.3140028  -0.1074386  -0.2420245  -1.0008616   1.5431230
   0.0160028   0.5877723  -0.2694189   0.0998775  -0.0128110   0.1300799
  -0.1388073   1.8931319   0.6405462  -1.2187343  -0.0690943   0.3083056
  -0.0199292  -0.0331849  -0.1762243  -0.4132420   1.1444176  -2.0021574
   0.9286149   0.4388882   0.1598344   0.3663253   0.0874496   0.0433316
   0.4907710   1.2124041  -0.5143774  -0.8712178   1.1470406  -0.4250032
  -0.0588229   0.1560504   0.0226714  -1.7092361   0.8498346  -0.0685368
   0.0014725   0.3925952  -1.2253990  -0.1598165   0.2475732   0.2220846
  -1.1343780  -0.1582022   0.3852068  -0.0748041  -0.0718265  -0.3510180
   0.0029188   0.0324182   0.2133930  -0.2858061   1.0412203  -1.0611930
  -0.3047931   1.0335828   1.4917018  -0.1516238   0.0802182   0.0879821
   0.7524387   0.0834353   0.1050514  -1.0772191   0.4005737  -0.9462317
   0.0936417  -0.2077635  -0.3548631  -0.9952634   0.3006253   1.7241420
   0.2941899   0.3427998   0.2344034  -0.0261860   0.0792032   0.1023673
  -0.6307256   1.0920095   1.2709713  -0.0824057   0.2670628  -0.1393159
   0.2708595  -0.0944579  -0.1334404   1.5624311   1.5566007   0.7733379
  -0.1715600   0.3004301  -0.2530667  -0.2485541  -0.1264341  -0.1670802
   0.9319482   0.0928399  -0.9045420   0.7348269   0.8247398  -0.0844415
  -0.0320102  -0.3789759  -0.0187266  -0.4521119   1.1240170   0.5289562
  -0.3270948  -1.3727840   0.6811613   0.1996220   0.2432790  -0.0832895
  -0.2974775   0.0284774   0.3027009   1.0495070  -0.6139688  -0.4094572
  -0.0171058  -0.1856999  -0.1955469   1.2011459   0.4835734   0.5481821
  -0.6534221   0.4680371   0.6570795  -0.1212325   0.0106558  -0.0185024
   0.4921491  -0.1330991   0.2341512  -0.7541451   0.1398120   0.1276707
  -0.1206476  -0.3464540   0.1029723  -0.5148838   0.8226725  -0.3211210
   0.4798528   0.2888876   0.3522516  -0.1396982   0.0248826  -0.0698107
   1.4181188   1.9687258   0.4032202   1.0996811  -1.6012248  -1.2209096
   0.1327105  -0.0357471   0.0832375   0.0939323  -0.4509380  -1.8096770
  -0.4363312   0.8247435   0.5517893  -0.1186033   0.1300179   0.2213251
  -0.2437956   0.4288566  -0.9456785   0.8478113  -1.1841240   0.2740455
   0.0702245   0.0124851  -0.0191898  -0.6868405  -1.5200723   0.4182110
   0.1475718  -0.0023677   1.2671494  -0.3536902  -0.1498007  -0.1965721
   0.5877359  -0.6516949  -0.5962574   0.6879926  -0.1421856   0.4458943
   0.0674207   0.1218426  -0.1201529  -0.5871250   0.1019799  -0.1171387
   0.8414885   0.7405818  -0.0427523  -0.1851569   0.0320271   0.1212884
  -0.1441388   0.5087705   1.6959448   1.4146535  -0.2260338   0.5398729
   0.0089319   0.0005715  -0.2225324  -0.3058484   1.1881012  -1.0551510
   0.8978011   0.2377289   0.2390491   0.0279536  -0.2544237  -0.0819760
   1.2582854   0.9720796   1.4650789   1.4815596  -1.4506556   0.3526250
   0.0658840  -0.2461134  -0.0485822   1.1322463   0.5243267   0.7331023
   0.0418897   0.1415391  -0.7883162  -0.1986212   0.2184039   0.0299710
  -1.2407117  -0.5574805   1.0596496   0.2279201   0.8071935   0.3853041
   0.1842577   0.1916521  -0.3078301   0.5225381   0.5196061  -0.4247079
  -1.3848265   0.8351896   1.0782466   0.0855092   0.2310472  -0.1477138
  -1.3692163   0.1251306   0.2594336   1.3983567  -0.4971699  -0.3207232
   0.1758172  -0.0687992  -0.0021504   0.3849104   1.9735026  -0.6281208
  -1.6849487  -2.0227661  -0.2526772   0.3028253  -0.1869022   0.1304473
   0.5245471   0.5222538  -0.6991090  -0.6091756   1.8441142   0.5962751
  -0.1767696   0.2013623  -0.3134344  -1.1787734   0.1329458   0.8203756
   0.8231939  -0.6533509   1.0332137   0.2998857   0.1490597   0.1942866
  -0.2691593   0.4903188   1.1557912   0.7505590   0.2224266   0.7385991
   0.1435636  -0.1198456   0.4510370  -0.8544160  -0.6282999  -0.5992122
  -0.5411317   1.4583186   0.1802510  -0.1429975  -0.0395150   0.0351802
   1.3755232   1.5119141   0.1356975  -0.3464833   0.5382736  -0.3879983
   0.3855384  -0.0401894   0.2011644   0.6640380   0.0164730  -0.1675823
  -1.3254105   0.8516602   0.9003567   0.0011725   0.4340814  -0.2202761
   0.6818683   0.4193648   0.8065562  -0.0928884  -0.0799678   0.5488899
  -0.2087849  -0.0162767   0.1145456  -0.9390488   0.3447058   0.2590348
   0.8712630  -0.6185623  -0.5850171  -0.0121580   0.0517905  -0.3249533
  -0.5531321  -0.3561016  -0.5847560  -0.0663868  -1.0595411   0.0833179
  -0.0964460   0.2980330  -0.1157819  -0.0523506   0.9775743  -1.0906008
  -0.3783701  -0.4656749   0.7657187   0.1641554  -0.0217381   0.0038481
  -0.7286896  -1.2867792   0.2227769  -0.1837266   0.6450567  -0.9225296
   0.1969675  -0.0930190  -0.2827901   0.5285030  -1.4543716  -0.2751459
   0.7767321  -0.2847042   0.8637365  -0.3764179  -0.0300045   0.4341833
  -0.5013201  -0.3838195  -1.1722077   1.0158770   0.0473394   1.3745313
  -0.0409225   0.4726173  -0.2612838   1.5288737  -0.0603403  -0.4039890
   0.7002404   1.2960230  -0.6923662   0.3007891  -0.1077011   0.0415793
   0.4505175   1.4104772  -0.0031328  -0.5165200  -1.4096129   0.1048234
  -0.4641366   0.3023131   0.1467222  -1.1918592   0.0319497   0.1096166
  -0.7248567  -0.2844260   0.5952362  -0.2403645   0.1672536  -0.2731123
   0.1298649  -1.2160835   0.2782927  -0.0750018   0.3113746   0.2872309
   0.0371833  -0.1600149   0.0746961  -0.7744587   0.3098810   0.0220694
   0.0438885   1.2487791   0.1412613   0.1192793   0.1853623   0.1454476
  -0.1937256  -2.0060117  -0.4256745   0.2200444   0.4794737  -0.4904872
  -0.0722868   0.0760611   0.0020768   0.0486539  -0.6214169   0.0334705
  -0.2010134   0.5917912  -0.9950166  -0.1006780  -0.0857520   0.0227379
  -0.5705546   0.2081331   0.5329154  -1.1127703  -0.1657286  -0.1473073
  -0.2958733   0.1857153  -0.0007698   1.2388539   1.3639268   0.0143172
  -0.0529704  -0.6064865  -1.3688447  -0.0178180  -0.2812128   0.0888987
   0.4792584   0.1658079  -0.0289624   0.8825486  -0.9400451   0.2968245
   0.1064244   0.0494763  -0.0272758  -1.8852936  -0.4474489   0.4166869
   0.4709958  -0.9281064   0.1697459  -0.2850581  -0.0747890   0.1665816
  -1.1063126  -0.1294544   0.0630577  -0.3636483  -0.6393891  -0.9966752
  -0.1765337   0.1372011  -0.0392026   0.5041236  -0.1277226   0.6549840
  -0.3443397  -0.1805913  -0.4890527   0.2167323  -0.0152926   0.0728432
   0.5987206   0.5476889  -0.6175920   0.3725253   0.1395521   0.0227435
  -0.0181168   0.0934767   0.2374051  -0.2552254   1.2134025  -0.6234544
  -0.5206839   0.7791647  -1.2448441   0.1350157   0.0418372  -0.2343563
  -0.2688134   0.7177391  -0.5827746   0.3261483   0.9833662   0.8533692
   0.0553200   0.2099080  -0.1216852   0.5367473   0.3370303   0.0513501
  -0.2072724  -0.3178009   0.6981301   0.0105969  -0.1528397  -0.0457209
   0.7100379   0.2794139  -1.2139970  -1.0152237  -0.1155344   0.0769988
  -0.1749185   0.2221311   0.0079040   1.6087508   0.6315827  -0.5317940
   0.1021723   0.3850211  -0.0224371   0.1799413  -0.1048568  -0.0173765
  -0.0074029   0.2028275  -0.2576395  -1.7189655  -0.2581488  -0.0702488
   0.0961797   0.0531110  -0.1111673  -0.0776209  -0.8614860   1.6214733
   0.1708306  -0.8625713   1.4295505   0.1055036   0.1790108  -0.0303572
  -0.3438258  -0.5822071   0.8597786  -0.3690725  -1.3144672   0.1188166
  -0.0189476  -0.1432284  -0.0309415   0.2236259   0.9575580   1.5616792
  -0.4078323   0.3929040   0.4122630  -0.3648670   0.1456323   0.0262274
  -0.5575247   0.8586462  -0.8183040   1.7042654  -0.2522708   0.2997028
  -0.0008037  -0.2173901   0.1139557  -1.0781301  -0.0202915   0.6563579
  -0.1338498   0.2527793  -0.3940339   0.0609579   0.1702956  -0.0922986
   0.3206847  -1.5638181  -0.1324764   0.4272518   0.5363089  -0.9395383
  -0.3249284  -0.1741599  -0.0855030   0.6470957  -0.0797860  -0.7019976
  -0.8706123   0.2779183   0.5119227   0.1843945  -0.0856647   0.1934858
  -0.3009855   0.5400242  -0.0428073  -0.2242512  -0.0275970  -0.4955192
  -0.3754501  -0.4521950   0.0218782  -1.3907249  -0.3362168   0.0902294
   1.0289651   0.8102307   0.1480908  -0.0336975  -0.0130866  -0.0287052
  -0.3695898  -0.6929815  -0.2507946   0.3137723  -0.4042265  -0.1517286
  -0.1457664   0.1041901  -0.2843167   1.6194175  -0.1133090   1.4818817
   1.3212748  -1.0166959  -0.6523418   0.2046301   0.2187149  -0.1590564
   0.8875232   0.9269379   0.7581128  -0.8860811  -0.8761857   1.0912373
  -0.2169434   0.3315209   0.3082390   0.4142506  -0.2810996  -0.8833693
   0.9456043   0.4576246   0.4779796   0.2149134  -0.1860734   0.0311299
  -0.1265838   0.0782993  -0.8051561   0.3789608   0.1307263  -0.1728021
  -0.0497071   0.1815891   0.1459860  -0.2135524  -1.1687561   0.2765572
  -1.1583650   1.6483326   0.5626122  -0.1067284  -0.0734629   0.1078535
  -0.2581156  -0.0398085  -1.5566121  -0.7703375  -0.4841673  -2.1935527
   0.0073460   0.1782040  -0.2594469  -0.9031466   0.0793584   0.7939750
  -0.9704449   1.3763044  -0.5059673   0.2873537  -0.1561983  -0.1675214
  -1.0695894   0.1011517   0.1451994   0.0022816  -0.1134553   0.1754286
   0.1728711   0.1249534  -0.1573327  -1.7598996   0.3724919  -0.0677359
   0.4281768  -0.6072999  -0.4091127   0.3326329  -0.3603064   0.4265730
   0.4594112   0.8038928  -0.2152987  -0.1127508  -2.0110576  -0.0603470
  -0.0628411   0.0694694   0.0907425  -1.0810002  -0.3389688   0.7731737
   0.5401592  -0.5213311  -1.1350398  -0.0431453  -0.1689911   0.1701661
  -0.2857348   0.5271431  -0.2650544   0.9973577  -0.0668748   0.3130887
   0.1240915   0.4559058  -0.0645466   1.0176719  -0.1335731  -0.0622345
  -1.6023437  -0.8005269  -0.9197033  -0.3178745  -0.1199238   0.3248306
  -0.9956427   0.9629953  -1.0031427   0.4143617  -0.2666539  -0.1963640
  -0.2031714   0.1100304   0.0684730  -0.7223365   0.0424952   1.1170523
   0.3205939  -0.3578835  -1.1529303  -0.1689377  -0.4235345  -0.2186286
   0.6680191   0.6294250   1.8956437   0.5683162   0.7725364  -0.6990660
  -0.1268776  -0.2587669   0.2200903  -0.1116351   0.9953822  -0.2695694
   0.1349101   0.3136003  -0.4101971  -0.1717409  -0.1102188   0.0888571
  -0.6406906  -0.1304285   0.3487743  -2.1432450  -0.2861699   0.2803000
  -0.0508502   0.2182158  -0.0264917  -0.4047550   0.3694165  -0.5011635
   1.2079147   1.4953607  -0.5172881   0.0029035  -0.0967704   0.1750897
  -0.4422589   0.1479964   0.6022447   0.6773010  -0.7458737  -2.1966133
  -0.3235838   0.1610904  -0.2676824   0.5539407  -0.5796651  -0.0746518
  -0.8399152   0.7670796  -0.1902116  -0.1495058  -0.1278752  -0.2375536
   0.5447568  -0.3632413   0.2276101  -0.7657023   1.6547096   0.3233060
  -0.1952204   0.0003167  -0.0465514  -0.3111817   0.0167295   0.0894062
   0.5713914  -0.4163696  -0.3453258   0.2722993  -0.1677574  -0.1601785
  -0.9569652   1.5816096  -0.2950433   1.3648809   0.6240906   0.5347507
  -0.0971863  -0.0411594   0.1098568  -0.1666681  -0.8778168  -0.3871525
  -1.1450900  -0.6350416   0.5955312   0.1910137   0.4944515   0.0099980
  -1.0685909   0.7123337  -0.8460425   0.1184263   0.7817239   0.2600111
   0.2187706  -0.2674540   0.2479663  -0.0500380   0.0473649   0.8809956
   1.3171331   2.3838117  -1.1272727   0.0644930  -0.0415652  -0.3042874
   0.3530079  -0.0010302  -1.6796280  -0.5508173   0.2310055  -0.6514475
   0.0316758   0.0865414  -0.0208444   0.5637755  -1.1361938   0.8058341
  -2.7600052   0.6442215   0.4741144   0.5139190   0.1341038  -0.1214301
   0.4717169  -0.4924938  -1.2681166  -0.8118593   0.4977473  -1.1467342
   0.0283651  -0.0140852   0.0260849   0.1717569  -0.3653664  -1.7432053
   0.5986604   1.5789447   2.5356290  -0.1851246   0.1580502   0.0607245
   0.1180755  -0.3677575   1.0927422   0.3045565  -0.5580210  -0.5559889
  -0.0931105   0.1384386   0.2594692   0.0051093   0.2203174  -1.1072109
   0.3185663  -0.6137877  -0.1123214   0.2953034  -0.1175748   0.0791768
  -0.6015635  -1.0820911   0.9479096   0.1636495   1.2914050  -0.9612340
  -0.1911995  -0.2164114  -0.1269103  -1.8984039  -1.6721047   0.9099004
  -0.7436446  -0.7935582   0.1668925   0.0500457   0.0004587   0.1570855
   0.8902123   0.0199215  -2.1691082  -0.3469368   0.3130766  -0.2859327
  -0.0163626   0.0800624  -0.2777083  -2.1112442  -0.1437732   0.0586400
  -0.4160120   0.1922980  -0.0795073  -0.1032848   0.2974139   0.0947338
   0.5981649   0.3223813  -0.9490055  -0.6962245   0.8874845   0.7327211
   0.4660522  -0.0733651   0.1002300  -0.0559747   0.3010666   1.2811120
   0.8673674   0.9076426  -0.8637007  -0.0494642   0.0092806   0.0568091
  -0.0276771  -0.0271207   0.5528390   1.4142655   1.3412224   0.1616151
   0.0126850   0.2094158   0.0494474  -1.2518241   0.6794929   0.1649594
   0.3551079   0.0068083  -0.2018007   0.0754597   0.1669611   0.1920015
  -0.4844040   0.9931708   1.1323183  -0.1856689  -0.1443527   0.6976412
  -0.2049437  -0.0372656  -0.2188594  -0.7413419   0.3291487  -0.2140509
  -0.4321060  -0.4565509   0.5514643  -0.1649601   0.1197971   0.1951919
  -0.0740384  -0.4467414  -0.7939336   0.2528887   0.2893919  -0.5887271
   0.0417078   0.0840937   0.1793437  -1.4798869   0.9249740   0.3010943
  -1.1396941   1.0403228   0.0298409   0.2132078   0.1981795  -0.2462539
  -0.3600443   1.4101000   0.2601072   0.8760610  -0.0485758   1.8207724
  -0.0502548   0.0068748   0.0489799   1.5479521  -0.2537134  -0.7714514
  -1.4223448  -0.0813152   0.4051130   0.2678286  -0.1547877  -0.1862515
  -1.9062656   0.2267695  -0.2961146  -1.4134820   0.6170304  -0.2791237
  -0.1374694  -0.0035812  -0.1756427  -0.1123827   0.9842818  -0.5273980
  -0.3038983   0.1092559  -0.6981139  -0.1543858  -0.2230349  -0.1009791
   0.7028766   1.4110497  -0.1326392   0.2457858  -0.6399540  -0.0590329
  -0.1137828   0.2812052  -0.1751129  -0.4247043  -0.0421455   1.8044446
  -1.7941015  -0.1935508   0.5992526  -0.2110717  -0.1158429   0.0353508
   1.1946883   0.3954339  -0.4735826   0.7788786  -0.0882452  -1.0572983
  -0.1226481   0.1351351  -0.1531207  -0.4690222  -0.1376910   0.4926361
   0.5454140  -0.7451149   1.2119298  -0.2460239  -0.0559017   0.3024661
  -0.3937225   0.5360813   1.3862672   0.7979044  -0.3230567  -0.1160189
  -0.0684203   0.0439038   0.3444498   0.7966586  -0.8249698   1.3277030
  -0.3466947   0.5359523  -0.7538377  -0.1284902  -0.0011928   0.0728368
  -0.2737926  -0.2859853   0.3307163  -0.5810682   0.1484735  -0.6745098
  -0.0160802  -0.0673110   0.1440909  -0.2657343  -0.4334589   0.7903272
   0.3235854   1.5639755  -0.6512006   0.0293278   0.1740586   0.1573709
  -0.2342268   0.5612473  -0.1003225   0.5049731  -0.1505427  -1.5055717
  -0.3201822  -0.0048841  -0.0105343  -0.6810902  -1.1240082  -1.1132942
   0.4730476  -0.2328887   0.0414651  -0.2864328   0.0260780  -0.0301082
  -0.0854396  -1.1919389  -1.8505419   0.9973613  -1.2245076   0.1499475
  -0.2806936   0.0155613   0.2774822  -1.3133430  -0.1546282   0.7679554
   0.4330496  -0.3689425   0.4800712  -0.1504347  -0.2419807   0.1383369
   1.0359777  -0.0199310   0.4389076  -1.1134619  -0.1659356   0.6775437
   0.1776946  -0.3122430   0.0476363   0.0711154   0.7279938   0.1595296
  -0.9654114  -1.4893825  -0.4771203  -0.1890443  -0.0625364   0.3692823
   0.2175646   0.3054156   0.0544956  -0.0408994   0.4651413  -0.5742919
  -0.3693567   0.0589211   0.0035803  -0.7340654  -0.3844753  -1.4021995
  -0.2999192  -0.2211618  -0.3584521   0.1683537   0.0245282   0.0291875
  -0.6982786  -1.0811099  -1.3416815   0.3356163   0.2412701  -0.0648894
   0.0918002  -0.2047544   0.1610662   0.0035577  -0.3677068   0.1036616
  -0.7579920  -1.6542460   0.4086765   0.1231001   0.1772370   0.0053234
   0.6290193   1.9217430  -0.6029491   0.0728692  -0.9927117  -1.0605935
  -0.1145598   0.2967312   0.1524758   0.3785506  -0.1894232   0.8379353
   0.7891071  -0.3292670  -0.4946987  -0.5171831  -0.0308863  -0.0286765
  -0.4689017   0.2501712  -0.3039677   0.4026092  -0.7645614   0.5071298
   0.1686138   0.0939390  -0.0326197   0.5326120  -0.7820509   0.0386853
  -1.8490046   0.2687393  -0.6697647   0.1180702  -0.0479612   0.2888061
  -0.0089129  -0.2761118  -0.4021654   1.7922248  -0.6040342   1.6121969
   0.2270910  -0.1000649  -0.0220959  -0.0044495   1.3531041   0.2074121
   0.6676378   0.0014297   0.0715401  -0.0642237  -0.0679165   0.1146074
  -1.3468254  -0.0308265   0.0123117  -1.1088424  -0.1364527   0.0278943
  -0.2667770   0.2368374   0.3014978   0.7136739  -0.1529088  -0.4475207
   0.0072687   0.3620172   1.4878746  -0.3624503  -0.1445259  -0.0325147
  -0.0110464  -0.6087875  -1.1266658  -0.4179862   0.3576804   1.4050120
  -0.1314345   0.0800119  -0.3397199   0.3234285   0.1223781   0.8930519
  -0.6638753  -0.2542166   1.2534359  -0.1320070   0.2514902  -0.1983480
  -0.3139071  -0.1372149   0.9108245  -0.4215843   1.1616862   0.3053819
  -0.3398365  -0.1157315   0.1391073   0.5608630   0.5098621   0.7483417
   0.0597265  -1.0757731   0.1244626   0.0573023  -0.1969038  -0.0048905
   0.5925619   0.1110761  -0.0814979  -0.1181678   0.3578134  -1.4888526
  -0.2379684   0.0707575  -0.0960210  -0.1701078   0.3489130   0.7807570
   1.0966344   0.3546522   0.9851056  -0.0513287   0.1714853  -0.1919141
   0.5931232   0.7181548  -0.6226450  -1.8654885  -0.4767839   0.8976395
   0.3412739  -0.1007044   0.1612620  -1.4641738   1.0034330  -0.6771085
  -0.8526278   0.9844270   0.6966923   0.2161283   0.0829963  -0.0473830
   0.1533072   0.2325741  -0.0133552  -0.2536024   1.3538896   1.0675645
   0.1475979   0.0589635   0.0598915  -0.9710849   0.1854000  -0.0006623
   0.6209647  -0.4623748   1.2830739   0.0973668   0.0828666   0.3853467
  -1.4584523  -0.6817784   2.0656581  -0.4256267   1.0788717   0.2071218
  -0.1179306   0.0596448   0.0580029  -0.6175631  -0.5674363  -1.0161049
  -0.0224271  -0.5518236  -0.1081464  -0.1092079   0.2655179  -0.0222300
  -0.5669380   0.7121415   0.2578304   0.3418583  -1.4309030  -0.4692803
  -0.0139614  -0.3248723   0.5643260   0.1725957  -0.0007395   0.0836460
  -0.8949398   1.4051868  -0.6405272  -0.0277072   0.0514973  -0.2260945
  -0.7320144  -0.2355154  -0.0430545  -0.6080052  -0.4854586  -0.2668342
  -0.4334016  -0.0620507   0.1096842   0.8618608   1.0490218  -0.6175932
  -0.0474807  -0.5713423   0.9070829   0.0072127  -0.2212271   0.0533927
  -0.2525841  -0.7832865  -0.3187316   1.1181121  -0.1655281  -0.9187464
   0.3140476   0.0468240  -0.2092738  -0.7471151  -0.2078915   0.9820632
  -1.0692837   0.2548536   0.0460406   0.3496469   0.0915790  -0.2164204
   0.1621911   0.2639197  -0.1676713  -0.4427663   0.1572010   0.4525017
   0.1117394   0.0140322   0.0931059  -1.2808632   0.0429792  -0.1511963
  -0.5759242  -0.3541550  -1.4424787   0.0054602   0.0536016  -0.1835420
  -0.1739989  -0.9564568  -0.4334305   1.4359099   0.0695601  -0.7522697
  -0.0664879  -0.3134103   0.1174088   1.6186576  -0.7721834   0.7600679
  -0.2456969  -0.3222986   0.0563704   0.1850357   0.3286061  -0.0058997
  -0.3249958  -0.5352762   0.8660935  -0.7469923  -0.1607073   1.7273718
  -0.1359166   0.2750171   0.1580655  -0.6384841   0.9368655   0.7717350
  -0.5886103  -0.2661917  -0.8869564   0.0711347   0.1767602   0.0491742
  -0.7067488   0.0536838  -1.0494379  -1.1057059   0.8173363   1.0033159
   0.0013638  -0.2183621   0.0790675   0.8953013  -0.8427095  -1.1737558
   0.3001489  -0.0607342   0.4580875   0.2979921   0.1083649  -0.0930760
  -0.0121501   1.6708184  -0.0614433  -1.7043366   0.8137605   1.2323391
  -0.1416036  -0.1006606  -0.1185394  -0.7961845  -0.7449013  -0.3122348
  -0.8352498  -0.5309398  -0.3079974  -0.0195019  -0.0134418  -0.1302819
   1.8204538   0.9299458  -0.0483546  -1.2104275   0.1391997   0.3731516
  -0.1795605   0.2900622  -0.0765634   0.5053350   0.5681748  -1.0359342
   0.5468028  -0.4215730  -1.4944434  -0.0204303   0.2460316  -0.1491293
   0.5713447   0.0046129   0.0458553  -0.1105582   0.3230419   1.3101814
   0.1847955   0.0159605  -0.2057690  -1.4732590   0.1725587  -0.6363394
   1.4217955  -1.2500052  -0.8250516   0.0511703  -0.1189983  -0.3673396
  -0.9473572  -0.1852148  -0.0958619  -0.3553356   0.2801525  -0.5324381
  -0.2556215  -0.0458953   0.1985091  -1.0302653  -0.0754915   0.0351251
   1.1489823   0.6214568  -0.4190784   0.2820923  -0.1188404  -0.2044998
   0.7345778   0.0102901  -1.1189353   2.6625454   0.9381128   0.4301395
   0.1107138  -0.0579641  -0.0055066   0.6562904   0.2409445   0.0090905
   0.2871870   0.4082191  -1.6038464  -0.0641576   0.0409779  -0.0094447
  -0.2370088  -0.2741500   1.5242585   0.7299875  -1.5569398  -0.5398601
  -0.0856935   0.3686285  -0.0586424  -0.9939321   0.0715502   0.1746880
  -0.8280265   0.6982405   0.2542695  -0.1734192  -0.0624297  -0.3111158
   0.7945437   0.4451901  -1.5263376  -0.2213503  -0.5160216   1.2829362
  -0.0006733  -0.1344109  -0.1383808  -0.1284936  -1.2516733   1.0634869
  -1.2931309   0.1119942  -0.0583531  -0.0178855   0.2489983  -0.0451897
   0.7230896   0.2960637   0.5000146  -0.2369247  -1.2144104  -0.8066475
  -0.4206076   0.4459353   0.0727052  -0.3914080  -0.1098688   0.0564338
  -0.3740487  -0.5853217  -1.0908898   0.1619768  -0.1472925   0.1817054
   0.8450895   1.5452465   0.6931686   0.0982162  -0.6927364   0.2248447
   0.2301548  -0.2316186   0.0578266   0.9294841  -0.9527057  -0.3098609
   0.2080403  -1.1447066   0.0969772  -0.1529135  -0.4266243   0.0204751
  -0.2268835   0.7888956   0.1777508   0.5485441  -0.7440767   0.4329479
   0.2709653   0.0771647   0.0894065  -0.4124163  -0.0795869   0.3385195
   1.0095237   0.8494642  -0.5964418   0.1109018   0.3013685  -0.1359735
   0.7859858  -0.7327012  -0.4167131  -1.3727515  -0.2240165  -0.2566361
  -0.0113798   0.0534471  -0.0628972   0.2116117  -0.6952752  -0.1381187
  -0.8284720  -0.5176162   0.8443770   0.0759829   0.0879495  -0.5135981
   0.0050421   0.7082056  -0.2671877  -1.0855006  -0.2161173  -0.3234085
   0.0747123   0.4966413   0.0208547  -1.2980328   0.1201800  -0.3498119
   0.4910928  -1.2972274  -1.1307715  -0.2006600   0.0036822  -0.0072297
  -0.0540162  -0.5545006   0.0045879   0.3046382   0.1910852   0.7760468
   0.0568270  -0.0289401  -0.0855816  -0.3809509   0.9301621  -0.2066780
   0.0233983  -0.1929623   0.5342985   0.0333780   0.1032562  -0.1619613
   0.3885800  -0.7054196   0.6980439  -0.8201143   0.6223630   0.3257346
  -0.0865093   0.0300236   0.1474267  -0.7253940   0.7235914   0.0551768
  -0.0361344  -0.8453928  -1.5064692  -0.2671072  -0.1987676  -0.0717312
  -0.4759910  -1.0562304   0.7781116  -0.2360682   0.3432190   1.0030602
   0.0623274  -0.1175883  -0.1156619   0.8779672  -1.1548454   0.9778076
  -0.0013180  -1.7582356  -1.2011803  -0.4040434  -0.2550208   0.5337040
   0.2790224   0.6636266   0.3230806  -1.1814953  -0.2262003   0.8354659
   0.0232955   0.1718033  -0.0994877  -0.2431910   0.7736489   0.1629764
   0.9758960   0.2865320   0.3016316  -0.2410723   0.0761486  -0.2277730
   0.4145911  -0.2388432   0.7766721  -0.4025411   0.5110613  -1.2928469
  -0.1235728  -0.2739143  -0.0127736   0.0296832   1.1694150  -0.0996958
  -0.3143565  -1.8416563   0.0634029  -0.3298055   0.0016381   0.1539968
   0.6798109  -0.8593807   0.4296372  -1.0149698  -0.0880531   0.1088773
  -0.1411311  -0.0485166  -0.3183825   0.4367020   0.5573341  -0.0123695
  -0.8895993   0.1295181  -1.5758839  -0.0941517  -0.1604150  -0.0406980
   0.1765331  -1.1904430   0.2870388   0.2118691   0.2059275   1.5508136
  -0.2939068  -0.3175593   0.0540626   0.0283559   0.9658140   0.1288351
  -1.5740873   0.7739877  -0.2880632  -0.3507991   0.0512060   0.0830715
   0.4113088  -1.4686087   0.1150982  -1.4104023  -0.0785452  -0.1544868
   0.0367292   0.0965799   0.4650040  -0.9699061   0.6143170  -0.6034821
  -1.2702651   1.0666590  -0.0366943  -0.1803060   0.0904959  -0.0371028
  -0.3469130   0.8689947  -1.7855138   0.1190965  -0.5201547  -0.2114850
  -0.0625916   0.0548825  -0.1330217   1.5409529  -0.2417289   0.9455233
  -0.2616980   0.4715408  -1.8078351  -0.1982342  -0.0032245   0.1224927
   0.3092909   1.0079422   0.1472217   1.1648446   0.8571106  -0.7117461
   0.2760372  -0.2648938  -0.1688672  -0.3129733  -0.9107444  -0.0306694
   0.6554443  -0.3159223   0.8791555   0.0688383   0.0756144  -0.0125873
   0.2511246   0.3463421   0.8407297  -0.9356254   0.8003735   0.5688818
   0.0880966   0.1589680  -0.2077244  -1.6677098   2.5846760   0.4555340
  -0.5644262  -0.2367294  -0.2529104   0.1266333  -0.0636430  -0.0504199
  -0.4902672   0.1294803  -0.6200709  -0.5573670  -0.3834530  -1.7488225
   0.1158651  -0.3785753  -0.1955975  -0.0475340   0.3696884   0.9455519
  -0.3408386  -0.0525295  -0.2834672  -0.2389089  -0.1589798   0.0184708
  -1.4110312   0.1689597   0.6856477   1.1585129  -0.6051301  -0.1191611
   0.0296872  -0.3237744  -0.0798502  -0.6748613  -0.0568682   0.3002279
   1.0025599  -0.7288211  -1.3863728  -0.0413095   0.3422799  -0.0658333
   0.9404408   0.5791636  -0.7332515   0.1917959  -0.8728352   1.2458550
  -0.1870454  -0.1673865  -0.3247841   0.9320635   0.7370276   0.5795719
  -0.5713084  -0.2053948   0.2275621  -0.0434443   0.1889116  -0.0183008
   1.5601264   0.4124368   0.4473622   0.3223225  -0.1696026  -0.8632557
  -0.1617831  -0.1995321   0.2024624   0.6521175  -0.9589076  -0.1302080
   0.0302302   0.6678175   0.3756472   0.0373920  -0.0998278  -0.0310417
  -0.3368806   1.0058763   0.2031727   0.1283823   0.2255550   1.3143277
  -0.0807133  -0.0872417  -0.1838001  -0.1530875   1.1813128   0.6639192
   0.1856458  -0.8600723  -1.3497258   0.0871300  -0.0204513   0.0467302
   0.2289967   1.3500680   0.2687866   0.4682686  -1.3018409  -0.0221194
  -0.2207553   0.0473195   0.3382505   0.6090896   0.8500510  -1.0659562
   0.7117863  -0.2670132  -1.5543426  -0.1326889  -0.1025931   0.1839660
  -0.5076069  -0.5392644  -0.3221546   0.6238199   0.7715359  -1.1961048
  -0.4225800   0.2072781   0.0975802  -0.2046460  -0.8753536   1.0153633
  -1.3484334  -0.7993071   0.2842391   0.0734068   0.1598299  -0.2855003
  -1.5116531   0.4781102  -0.0812466   0.2631400   1.1165580  -1.3913229
  -0.0768964   0.2498809   0.3497136   0.8613739  -0.9771190   0.5910557
  -0.6957369   1.0737662  -0.0625278   0.2739578   0.0977197   0.1796380
  -0.0114435  -0.8514954  -0.1899980  -0.0286577   0.2896492   0.8293957
   0.3016150   0.1284742  -0.0376580  -0.2170414  -0.7997906   0.1418390
  -0.7591799   1.0947125  -0.2594270   0.0175191  -0.2345140   0.1416543
   0.9486850  -0.3929183  -0.3232009  -1.8011087  -0.1378601  -0.3623821
   0.2895759  -0.1305216  -0.0306202   0.2058476   1.0562786  -0.2467888
  -1.5785477   0.8100243  -0.7718859  -0.2141239  -0.1158333  -0.0435877
   0.0035194   0.5301790  -0.6044008  -1.0868562   0.4977070  -0.2825219
   0.2601606   0.0355229   0.2235419  -1.4308268   0.5643525  -0.7725601
  -0.7145234  -0.2166275  -1.2366503  -0.3884705  -0.2734962   0.1234887
   0.4190025  -0.8317386   0.3369740  -1.3633645   0.0600882  -0.0696096
  -0.1797029   0.0710533  -0.2201425   1.2025720   0.7186072   0.3849405
   0.3552752   0.8258271  -1.3268695  -0.1408613   0.1609042   0.1236624
  -0.7062362   1.5146495   0.0929489   0.1628654   0.5644237   0.6086248
  -0.0518550  -0.1525056  -0.2500729   1.1457025  -0.7565225   0.1169231
  -0.8707970   0.4887935   0.2967382  -0.0316394  -0.1978759  -0.5374009
   1.4515882  -1.3226911  -0.6679873  -0.5601314  -0.4073474  -0.7645949
   0.1700128  -0.1837972  -0.0538553   0.8238494   0.3573566  -1.8050333
   0.1935631   0.6639224  -0.7998815   0.0288058  -0.0941127  -0.1217027
  -0.4804805   0.3712478   0.4300829  -0.5431178  -0.8764786  -0.5327039
   0.0842709   0.5031809   0.0870639   1.1969780   0.3949150   0.4927539
  -0.4461743   0.5955457  -0.3203216  -0.0452131  -0.1627465  -0.2809438
  -0.9142467  -0.4308605   1.0946259  -0.1496566   0.2646175  -0.6597645
   0.1667822  -0.3470812   0.0341161  -0.1666456  -0.3427675  -0.9416542
   0.2932347   0.0248517   1.1841629   0.0015328  -0.0941270  -0.2252460
   1.0771278   0.2431253   1.2742399   0.1830566   0.5706114   0.6031900
   0.4665422  -0.0218133   0.4276590  -0.0879374   0.7151178   0.4104040
  -0.0101594  -0.6831559  -0.6885449   0.2947152  -0.1993421  -0.0701471
  -0.2343825   0.7439570  -1.3271986  -1.2789992   0.4931939  -0.4433600
   0.0613724   0.1282124   0.1928227  -1.6633384   1.3584887  -0.4109335
   0.5311650  -0.1379318  -0.7209718  -0.1875565  -0.4465244   0.2434059
   1.1144443   0.9589674   0.1317109   0.8562621  -1.3470987   0.8333981
  -0.3022516  -0.0271646   0.4036019  -0.1488245  -0.2790538   0.1530806
   0.1550803  -0.4160773   0.0363518  -0.1221639   0.1568764   0.3001280
   0.5693405   0.8648005  -0.2641330  -0.8133774   0.8740240  -0.2989182
   0.2734586  -0.0502001   0.1263475   1.6664789  -0.4207131  -0.2113636
   0.9993384   0.6413863  -1.1005358  -0.0379138   0.2179839  -0.2007251
   0.6303718  -0.3658663  -0.6251974  -0.0602807   1.6480083  -0.0977123
   0.0480107   0.0445476   0.2133793   0.7740573   0.7459506  -1.3012260
   0.0432800   0.7286990  -0.0857824  -0.1241302  -0.3687884  -0.1727563
   0.0686454   2.2167225   0.5455330  -0.0612497   1.0212146   0.6669813
   0.0283717  -0.3962632   0.0773065   0.2810342  -0.5078728   0.4279092
   0.9634751  -1.1594665  -0.0634543  -0.6168684  -0.0956260  -0.0244987
  -0.8366134  -0.9057015  -0.8795043  -1.1150815  -0.5277114  -0.6648049
  -0.0524784  -0.2876077  -0.0206916   0.3199252  -1.4777986   0.9974489
   0.1673816  -0.1591946   0.0109184  -0.1987365   0.2636784  -0.1791730
   0.7880263   0.4794216  -0.3098069   0.5820080  -0.3796880  -0.2706346
  -0.0011177  -0.1597628   0.1549949  -0.9318040   0.4131089   0.1564635
  -0.5312986  -0.9819201  -0.2693633   0.1535051  -0.4533724  -0.4386661
   0.4879957   0.2377040  -0.2893405   0.4810445   0.1954608  -0.2026472
   0.1061590   0.0960199   0.2109141  -0.6801118   0.1036230   0.6227128
  -0.8383554   0.1623601   1.3129916   0.1201728  -0.0106601   0.2023740
   0.8349893   0.6015508  -0.5675099   0.0017646  -0.9044427  -0.4707447
   0.1517809   0.3380696  -0.1614751   0.0301966   0.0107237   0.2243815
  -0.4122145  -1.2134651  -0.1848462  -0.1803751  -0.2851669   0.0192672
  -1.4797406   0.5544546  -0.1889659   1.4211789  -0.4719270  -1.2234768
  -0.2831274   0.3151695  -0.0497063  -0.3186011  -0.4207921  -0.2148262
   1.0334816  -1.3485221  -0.3168981   0.0185662  -0.1042152  -0.0225817
  -0.1608041  -0.7935683  -0.4716944   1.2515454  -0.3526301  -1.4813313
  -0.0608016   0.1776722   0.4343731  -1.1315372  -1.9192388   0.0394242
  -0.4104463   0.4710073   0.7042197  -0.2093997  -0.1942237  -0.1633323
  -0.1758705  -0.9965521   0.2080792  -0.3273685   1.0681043  -0.4810453
   0.0001508   0.1838052   0.0745854  -0.6673082   0.1753821   0.9709907
  -0.7515532  -2.1002085   0.7481455   0.0940655   0.1489161   0.3608680
   0.3703780  -0.0530623   1.0883082  -0.2403280   0.1959376  -0.9379814
   0.0573942  -0.0658372   0.0406090   0.6883496   1.0841916   0.5454357
   0.0098476  -1.6415131  -0.0392909  -0.0521900   0.1217599  -0.0706829
   0.7952654  -0.0899491   0.7459424   0.2210337  -0.7176439  -0.4177258
   0.1966237  -0.3561975  -0.1524035   1.7200447   0.5117572   0.4572529
  -1.3032082   0.8044143  -0.8969139   0.1236720  -0.0363134  -0.0302313
  -0.4258693   0.5327361   0.2251870  -0.6798114   0.3739182   0.9185145
   0.1515410   0.0078490   0.0108336   1.5592405   0.3574051   0.9334929
   0.2177856   0.7701383   0.7025899  -0.0666109   0.0501896  -0.1248938
  -0.2929313  -1.3613108  -0.1277939  -0.3658514  -0.3701485   0.3788160
   0.3286669   0.0404481   0.4122853  -0.8215016   0.5930386   1.1280191
   0.4180275  -0.3462095   0.8479327  -0.3995131  -0.2412270   0.3130819
  -0.2718183  -0.7131900  -1.3043652  -0.5599421   1.0468152   0.1999180
   0.0644849   0.0650288   0.0530347  -0.7141006   1.4428645   0.1355749
   0.5574588   0.0270348  -0.2545999  -0.2919415   0.0066366   0.0981551
   1.0405432   0.2666130  -1.2296519   1.0580126   0.3922453   0.4798118
  -0.2271845  -0.2992874  -0.0825212  -1.0305145  -0.5652125   0.1495267
   0.5874952   0.8783084   0.3221089   0.4150184   0.0231455  -0.1495764
   0.6080991  -0.5102857   1.3476411  -0.0273892   1.5937002  -0.6307169
   0.1719985  -0.1402159  -0.1055628   0.0166129  -0.7455691  -0.5446122
   0.5462209  -1.0513259  -0.0470054  -0.2446814   0.1133381   0.1960467
  -0.5639892   0.3373244   1.0327896  -0.0837203  -1.7813928  -0.2867896
   0.0889222   0.2927209  -0.2309108   0.2331618  -0.2702394  -0.3947170
   0.0067821   1.0013690   0.1590407   0.1804031   0.1036190   0.1012273
   0.5977391   0.3660048  -0.8362054  -0.4743486  -0.7466719   0.1303494
  -0.0936428   0.1335550  -0.2560092   0.0120690   0.3914759  -1.2490727
  -2.2655215   0.3355115  -1.5277803  -0.1358864  -0.2264405   0.1874684
   0.1279978   0.1491127  -1.7012781  -0.3352845  -0.8009443   1.7567863
  -0.2473623  -0.1261697   0.0428353  -0.4024159   0.2130761   0.4165768
   0.2021616   0.6445677  -1.3843974  -0.1392310   0.1940622   0.2054377
   0.4960007   0.5688062  -0.1002977  -0.5568965   0.4949125   0.4281149
  -0.1760177  -0.0021761   0.0063607   0.8335264  -0.0036275  -1.0745854
  -0.5076794   0.6085522   0.9665770   0.2780840   0.1591461   0.2461093
   0.5607601   1.5966568   0.9481382   0.6568673  -1.0008523   0.3237117
   0.1354348  -0.1686795   0.3224449   0.9291433  -0.9805720   0.1530491
  -0.2074763   0.5879229  -0.9138041   0.1467894   0.4568509   0.0423676
   0.4312808   0.5912878  -0.7040060  -0.4176823  -0.3537472   0.2501518
   0.0842563   0.0215496  -0.1985528   0.2606388   0.5993891   1.6606209
   0.6671964  -1.3248783   0.3419453  -0.5839638   0.2093836   0.0010871
   0.3513396   0.7455287  -0.5278133   0.3752161   0.4927479   0.7779195
  -0.1622039   0.0381591   0.0402893   1.3475536   0.2410325  -1.2052106
   0.2204707  -0.8511497   1.3245684   0.2417508  -0.1031886  -0.1607184
  -0.8237507   0.7450893   1.2306452  -0.4262928  -1.2832979   0.6467292
   0.0353579   0.4257549   0.1192441   0.3686991  -0.9852301   0.5058278
  -0.0441832  -1.7449049  -0.6645956  -0.0211788   0.2094396  -0.0961992
   0.0476051   1.0459137   1.1044383   0.6106137  -0.1210090  -0.8053642
   0.0693282   0.1145894  -0.0260320  -0.6322576   1.8680835   0.0062063
  -0.8198925   0.2953937  -0.0399217  -0.2522855   0.5494934   0.1967274
   1.2978028  -0.6182806   2.7978325   0.0566117   0.6453078  -0.7173133
   0.1864854  -0.2665044  -0.1757020   0.2275968  -0.6246484   0.2660824
  -0.3324144  -2.0134366   0.7471604   0.0227574   0.0810453   0.1418629
   1.2737356   0.2750026   0.8083788   1.6154701  -0.7556252  -0.8337572
  -0.2773217   0.1067316   0.1488933  -0.4303494  -1.8165494   0.8055699
   0.6443912   0.9065171  -0.4926637   0.1448633  -0.5663713  -0.0650560
  -1.6934370  -0.2865792  -0.7786727   0.2133754   0.2942225   0.8311790
  -0.0697937  -0.2031526  -0.1170176   1.2596014   2.4550164   0.6961186
   0.4798424   0.7812597   0.3722097   0.0364315   0.1029094   0.2612168
   0.7838055   0.5077571  -0.6057228   0.3338402   0.4927516  -0.2900425
   0.2387242   0.0981887  -0.3232921  -0.4469303   0.5049090  -0.8867489
   0.1417516  -1.1010420   1.7375607   0.2785779   0.0664564  -0.1594236
  -0.0788327  -0.7760032  -1.8257940   0.1248659   0.1053297   0.6463649
   0.0870982   0.0194374  -0.1619577  -0.0003912   1.3946390  -0.0777283
  -0.0404258   0.2157254  -0.5857056  -0.2138088  -0.3275863  -0.0926084
  -0.6072990   0.1034352   1.1577168   0.1614337   0.3344445   0.2490101
  -0.0779135   0.0339249   0.1691484   0.7709538  -0.5442508   0.7323054
   0.0652475  -0.8167740   0.1082913   0.3100213  -0.1553017   0.0739314
  -0.0550915   0.0829564   0.5382153  -0.7508492   0.2126466   0.7552556
   0.2568268  -0.0352983  -0.0946151   1.0185000  -0.1705120  -0.2295709
  -0.5528028  -0.4816419   0.2811142  -0.1222814   0.1084516  -0.0474429
  -0.6881691  -0.4193457   0.0275758   0.5281051   0.9318072   0.4114751
  -0.1702304  -0.1476751  -0.3222620  -0.5935755  -1.1285931  -0.9086446
   0.3724975   0.4180562   0.6377199  -0.0883573   0.5235870  -0.2181909
  -1.2080387  -1.4094481  -1.3835632   0.4258342  -0.4466032   0.5112032
  -0.1885078  -0.1786040   0.4016860   0.1367457  -1.2111287  -0.0397928
   1.0039384  -0.2941357  -0.1950593   0.0079691   0.0128858   0.1932928
  -0.3905326  -0.0830274   0.1839810   1.5263824  -0.0125312   0.1972511
   0.1409840  -0.1507826   0.0661926  -0.6932621  -0.0325879  -0.2397632
   0.2676734   0.7401102   2.0231771   0.0089427  -0.1339838   0.0510867
   1.5985295  -0.0700293  -0.4979868   0.0240046  -0.5551249  -0.4686083
   0.1684903  -0.2543170   0.3816827  -0.4156173   0.9582949   0.2999015
   0.6115385  -0.0360198   1.1116542   0.2136853  -0.0511091  -0.0191850
   0.6532397  -0.3996781   0.7580283  -1.2567183   0.6007608   0.2583086
   0.0715827   0.1159864  -0.1307881   1.3330367   0.3197499   0.1434362
   1.2805859  -0.2077602   0.6772746  -0.2589702   0.0922911   0.1078451
   0.9350641  -1.2027960  -0.3647373   0.8192837   0.0257502   1.3028237
   0.1737488  -0.2235013   0.0102955   0.0158431  -0.0500414   0.5728313
   0.8283803   0.0526035   0.3157550   0.1285589  -0.2110287  -0.1116738
   0.1232372   1.9591603   1.1002171   1.8293200   1.9968323   0.4665762
   0.1955704  -0.0558743  -0.0314928   1.3324933  -0.1427680   0.3654738
   0.6505333   0.6582165  -0.4574890  -0.1396360   0.1301253  -0.0545684
  -0.2239510   1.6340690   0.4981292  -0.6788366   0.9931024  -0.0713801
   0.1501670  -0.0180877   0.2407136  -0.3045907  -1.0452276   0.5216880
  -0.8167079  -1.2939234   0.9842764  -0.0545477   0.0426729  -0.1929162
  -0.0959757   0.1839241  -0.6129700  -0.2967415   0.3842230   1.1102235
   0.1903512   0.2542618  -0.0117611   0.5867705   0.3238423   0.4168613
  -1.0147802   0.3091249   0.1849581   0.3752930   0.2848763  -0.1420455
   0.2828372   0.2312083   0.6227408   1.1402311   1.2378122  -0.0867533
   0.0014067  -0.0050733  -0.0214047  -0.9101043   0.6321695   0.1231776
  -0.8150472  -0.8013511  -0.0820028   0.0050021  -0.0782719  -0.0886845
   1.5697701   0.6705275  -1.0738919  -0.8511999   0.1198237   0.4495231
  -0.1931967   0.3420623  -0.2101553   0.4379586   0.1576352  -1.0241051
   0.2947641  -0.2920593   0.5171151  -0.3963124  -0.0946453  -0.2815718
  -0.3201715  -0.3882206  -0.1385174  -0.8430559   1.3249063   1.6006719
   0.1238777  -0.3305812   0.0702475  -0.4177195   0.3757794  -1.7131370
   0.5091280  -0.6598489  -0.2444990  -0.2946642   0.0907393  -0.2858524
  -0.2577192  -1.6891099  -0.0050025  -0.6952586  -0.5308254   0.0633292
  -0.0808892  -0.3171497  -0.1159316   0.0336951   0.0891249   1.0034728
   0.1940781  -1.8299758   0.4850588   0.0135805  -0.1805060  -0.3423589
   0.1170700  -0.0422067   0.9406838  -0.4925487  -0.0319438   0.3870037
  -0.2801749   0.0819805  -0.1443585   0.0190617   0.2000978   0.6127791
   0.8437747   0.4823373   0.5476168   0.1531909  -0.1465649   0.0298084
  -0.5527002   1.3889627   0.4093769   0.7958664   0.1763956   0.2781658
  -0.2123334  -0.1781060  -0.3041378  -0.0898647  -0.3094713  -0.2305477
  -0.3877555   0.8377424   0.8418637  -0.2042551  -0.0206995   0.0053001
   0.2630612  -0.1310289  -0.1447162  -1.6520536   0.5480761   0.9974154
   0.3308926  -0.2131131   0.2534317  -0.3775726  -0.4823118  -0.2074267
  -0.2381931   0.4029865  -0.4764642   0.3199159  -0.3303742  -0.3283869
   0.3379650  -0.3261023  -0.6900113   0.3901785   0.4126894   1.4087909
   0.2361845   0.0072557   0.1806913   0.1130010   2.1720107  -1.1774441
   0.0881949   0.9037844   0.9984108   0.3148828   0.0800456   0.3648221
  -0.2600747  -0.0678510  -0.3722743  -0.5912697   0.3532586   1.2658820
  -0.3876775  -0.1065034   0.0346778  -0.1997908  -0.3465672   0.3842202
  -0.2894026  -0.9138023  -0.9186643  -0.1174686  -0.1543669   0.0410857
   0.0555975   0.2997876   0.0115830  -1.0843867   0.4560293   0.6785453
   0.1331152  -0.2140788  -0.2792033  -0.6295990  -0.1124346  -1.2065167
  -0.1458166  -0.4332850  -0.3741636   0.0901279   0.2121191  -0.0449247
  -0.4946661  -0.3697724   0.1228528   0.7534623  -1.0365098  -0.7621973
   0.0143995   0.2365789   0.0259067  -0.8350698  -0.9869048   0.3689426
   1.3147110  -0.1087387  -0.6673248  -0.1127399  -0.1058458   0.2471961
   0.2661115   0.0003573  -0.0539708  -0.9560320   0.4037187   0.0722461
   0.0844608   0.1112729  -0.2134686  -1.1622398   0.0921234  -1.5273868
  -0.1395933  -1.0616578   1.0412685   0.1557410   0.1058004  -0.1203494
  -0.6727377   0.3945593   0.9830721  -0.7244100  -0.2883563   0.6453609
  -0.0205620   0.1316296  -0.0102854  -0.3891049   0.4601077  -0.0908275
   0.7779182  -0.7984608   0.9849486   0.1350853  -0.1820771  -0.1465797
  -0.3886406   1.2654941  -1.0834533  -0.5063027  -1.2440859  -1.0128754
   0.0504006   0.1497853  -0.0439778  -0.0853850   0.5305909  -0.0387892
  -0.9962625  -0.9319570   0.4021644  -0.1004231  -0.4355942   0.4909246
  -0.1334577   1.5093938   0.8313801  -1.1495079  -0.8897781  -2.3135185
  -0.0526107   0.0853505  -0.0843844   0.9784008   1.1027302  -0.5559616
   0.3149919  -0.6034451   0.2142747   0.2022437   0.1543887  -0.1596754
   0.0925158   0.1943783  -0.0978550   0.7751808   0.3098394   0.7995039
  -0.1223622  -0.0878860   0.0006283   0.1713213  -0.1764488   1.0930989
   1.6500899  -0.7460262  -0.6348408   0.1746593   0.1532680  -0.0027156
  -0.6402822  -0.4178487  -1.0098227  -0.0641570  -0.6352046  -0.7597338
  -0.0318600   0.0892067  -0.0191675  -0.5692216   0.1357593  -0.6636373
  -0.2313743   0.7778776   0.7076945   0.0154921   0.1063022   0.0359119
   0.9507561  -0.5527046  -0.5413378   0.0191588  -0.6162043   0.0155496
   0.0264830  -0.1977006   0.2961942   0.5444094  -0.4152670   1.7491980
  -0.2363429  -0.4188290   0.4650871   0.2008448   0.0437429   0.1839428
  -0.3045044   1.0673759  -0.4070384  -0.8102018   0.0314936  -0.7074612
   0.1501778   0.0539455   0.0476071   0.1184031  -0.5486601  -0.1034119
   0.2936602   0.9646860  -0.4035689   0.1507102   0.0129243   0.0489801
   0.5132348  -0.3994654   0.0446969   0.8253778  -0.5509334  -1.5828607
   0.0236383   0.2288468   0.0725938   1.4395608   1.0993274  -0.3310426
   0.6646928  -0.3211555   0.1221747   0.0295745  -0.2750236  -0.1605605
  -0.9805725  -1.0433462   0.9676005  -0.3676043   1.4153163  -1.3755641
  -0.3208079   0.1155843  -0.1511369   0.0709522   0.1789200  -0.1137884
   0.9578742   0.3101555   0.0551194  -0.2559025  -0.2125641  -0.3785672
   0.8572924  -0.1682452  -0.9588096   0.3981724   1.1290958  -0.8840604
  -0.1728196  -0.1080660  -0.0665050   0.5059667   0.0410577  -0.1087869
  -0.4211494  -1.7851481  -0.1075444   0.0887763  -0.1324906   0.0127237
  -0.2383982  -0.3020953   0.4172612   0.2306207   0.9877492  -1.1504664
   0.0542387   0.3395136   0.0467115   0.2544889  -0.5246240   1.1067065
   0.9135242   0.8705066   0.3506077   0.0883284   0.0463189   0.2662341
  -0.9710656  -0.8678548  -0.6066846   0.8884464  -0.3277535   0.1812514
  -0.1047027  -0.3577326   0.3586136  -1.1463507  -1.7138547   0.2995601
   0.3960786  -0.6600814  -1.5876260   0.0219711   0.1113541   0.0007243
  -1.3037084   0.9132329  -0.2466601  -0.6686679  -0.4912587   2.0687857
  -0.2241929   0.1286247  -0.0459089   0.0064430  -0.2188577   0.2931359
  -0.9663645   0.5400296   1.0757182  -0.1772672  -0.2290308  -0.0473307
  -0.2389441  -0.9168650  -0.3218082  -0.4190445  -2.1941991  -0.3000461
   0.1313093  -0.1116799  -0.1515691  -1.2428209  -0.1830930   1.1852376
  -0.0980580  -0.2871794  -0.1711593  -0.0534631  -0.0245545  -0.0880483
   0.9139682  -0.6097775  -0.7518526  -0.3186450   1.2212173   1.6911399
  -0.0107768  -0.0752713  -0.0671811   0.2612665   1.7661809   1.6187196
  -0.1375829   0.1449472   0.7312820  -0.0190125   0.0388725  -0.1501340
  -0.6919342  -0.9768952  -0.6621073  -0.4526005  -0.9627786   0.4579071
  -0.1491183   0.1235895  -0.2275644  -1.2061286  -0.4775904  -0.0534418
   1.2367553   0.8983756  -0.3699722   0.1094070   0.1227353  -0.3729152
  -0.2969631  -0.4250960   0.3067941   0.2479734  -1.3225384  -0.7194788
   0.0759243   0.0088176   0.0224932  -0.6856118   0.3752865  -0.1934051
   0.4997841   0.3447792   2.1126237  -0.1101913   0.1252222  -0.3208060
  -1.5321552  -0.2973186   0.0841830  -0.1488707   0.3077438   0.9121887
   0.0551684  -0.1541701   0.0494031  -1.1046141  -0.9346421  -0.3053771
   0.0310217  -1.5596650   0.6862443   0.0297030   0.4620351   0.4272611
   0.4407908  -0.0820859  -0.2804148  -0.3874162   1.6616400   0.3505616
  -0.1432068  -0.2789293   0.1987273   0.3068077  -1.6998945   0.9065609
  -1.0757146   0.3144798   0.3869762   0.0587893  -0.0986522  -0.0289115
   0.4306490   0.9408960  -0.4824537  -0.5393299   0.3287062  -1.1307743
  -0.2049221  -0.0224962  -0.2375072   0.0371362   1.1193715   0.0749913
   0.9057458  -0.7623982  -1.1233597   0.1725558  -0.0806188  -0.0843339
   0.0635428   0.7151418  -1.0357527   0.0007883  -0.7978056   1.0916395
   0.0764826  -0.0187299   0.3417552  -0.4527122   1.2788841   0.9556699
  -0.9197969   0.3449886   0.9922708  -0.0472410   0.0410022   0.1374380
   1.9057623   0.2471079  -0.2317345   1.5278333   1.3327415  -0.2758657
   0.1768574  -0.0677060   0.1381691  -0.7269673   0.4256462   0.9656846
   0.6672807  -1.3983707   0.5751511   0.1272893   0.3332810  -0.0150442
   0.7245212  -0.4797692   1.1003751  -1.1530163  -1.0758359  -1.0242462
   0.2369793  -0.0144495  -0.0778418   0.6031541   0.7283493  -0.1322752
   0.8163016  -0.8269705  -0.6530989   0.0670530   0.1626975   0.1037498
   1.1204842   0.3174471   0.0804709   0.9738311  -0.5948240  -0.3803717
   0.0021880  -0.0209565  -0.0849479   0.4962262   0.0859846   0.4355067
  -0.1203523  -0.6367295   0.6456392   0.1171114   0.0263853   0.1396574
   0.1938557   0.3212717  -0.2982060  -0.2576433  -0.4670921  -0.7352722
   0.1168776   0.1172236  -0.0164946   0.4294374  -1.1350214  -0.3079066
   0.4572074   0.6097513  -0.2384816   0.0797882   0.1072210  -0.1190473
   0.6469617   0.0118947  -0.3051222  -0.1143622  -0.3654062  -0.5003262
   0.2475208  -0.0271860  -0.2756630  -0.6295648  -0.0502103  -0.0788629
  -2.1886673   0.4105926   0.1957765  -0.3482684  -0.0620654  -0.0821530
  -0.9737623  -0.3848301  -1.5664835   0.0758682   0.1016544   1.0061201
  -0.1687508  -0.1772188   0.1491849   0.6990649   0.7258378  -0.5812756
  -0.7310840  -0.8878785   0.7042897  -0.2656961   0.2602375  -0.0756086
   0.0003343   0.2593027  -0.7211102  -0.4445260  -0.8087509  -0.0540224
   0.0373028   0.1623271   0.1247908   0.8466071  -0.1996707  -0.7494501
   0.1646182  -1.1479031   0.7667468   0.2580837   0.0237972  -0.0606837
  -1.8754858  -0.6880759   0.9698995  -0.2757344   0.3476479   0.0049401
  -0.0366073   0.3684977   0.1549137  -0.3839976   0.8678850  -1.5741143
   0.0416554   0.1896082   0.8521338  -0.3583906   0.0786344  -0.0764805
  -0.2976714  -0.8541570   0.5064522   1.6213399  -0.0162217  -0.6013228
   0.1697821   0.1190548   0.0553283   1.5877235  -0.3663727   0.6653355
  -0.4534260   0.8981032   0.6232108  -0.2291733  -0.1597387   0.4183521
  -0.9080371  -0.1460924  -0.4789876   0.8269500   0.3445384  -0.0012733
   0.0549900   0.3201974   0.2333554  -0.1517950   0.5018218  -0.6855576
  -0.3790585   0.5418388   1.5825119  -0.1087980   0.1332273   0.3816789
   1.3341303  -0.3530284   0.0457574  -0.4913383  -0.4462243   0.4060332
   0.1909369  -0.2193202   0.5013849  -0.9916817   0.6566218   0.0107043
   1.1825627   0.4254520   0.3018827   0.0078415  -0.1805990   0.2309102
  -0.6217197  -1.3512592  -0.7042290  -0.5887946  -0.8469744  -0.3462276
  -0.0953811   0.2260881  -0.2715885   1.1984848   0.5236767  -0.6720194
  -0.8369692  -1.0249650   0.0402825  -0.3753396  -0.0598361   0.1865395
   0.1082316  -0.6713358  -0.6824221  -1.0044019  -0.2201986  -1.3505419
   0.2570593  -0.0737760   0.2167562   0.8787715  -0.4166761  -0.4114150
   0.8081147  -0.5663782  -0.5810351   0.2278376   0.4096859   0.3020376
  -0.1091803  -0.3407160  -0.1372409   0.2925710  -0.3890460   0.3183734
   0.2358409   0.0200417   0.1837496  -0.8898699   0.2117365  -0.0070153
  -0.4112374  -0.2008761  -0.0089056   0.3053792   0.1016078  -0.1803839
  -0.6455101   0.1009818   0.1142508  -0.0780597  -0.1033868   0.0357682
  -0.2997900   0.0053749  -0.1146381  -0.0707545  -0.2994794  -0.1244528
   0.4531555  -0.8530727   1.6730787   0.0831578  -0.0781739  -0.0475105
  -0.9818346  -0.7446961  -0.7374736   0.2306712   0.0167748  -1.2729639
  -0.0810950   0.1272913   0.2625745   0.1804229   0.3015718  -1.1355623
  -1.3429304   0.1878965  -0.7626967  -0.1948118  -0.0087210  -0.0972055
  -0.5405101   0.0291757   1.0414549   0.7753488  -0.0660039  -0.4967023
   0.1156025  -0.2602452   0.0726354   1.3807110  -0.0799884   1.6551999
   0.3795158   0.0386715  -0.1693720   0.1449468  -0.2391237  -0.1972408
  -1.2394530   0.7133248  -0.9900926  -0.0743073  -0.5731861  -0.4574563
   0.3132143  -0.1576325  -0.2002884   0.8795643  -0.6639274   0.0118904
  -0.5963556  -0.3309478  -0.4573066  -0.1072068   0.4103824   0.4975937
   0.1302152  -0.7742168  -0.1888357  -0.2438662   1.1612135  -0.1811839
  -0.0285079   0.2183168   0.0578561   0.4761020  -0.0114147   1.2489561
  -0.4323349  -0.7866924  -0.9591208  -0.1965261   0.1772835   0.2296090
   0.2010586   2.0814061  -0.1765727  -0.2845120  -1.1663284  -0.0718852
   0.0239310   0.3244170   0.0098822  -0.3473336  -0.8476798   0.5753068
   0.1476536  -0.2627843  -0.4289748  -0.2752270   0.2852300   0.0615063
  -0.8797079  -1.9072199  -0.5837185   0.4824098  -0.8363920   0.6691320
  -0.0043284  -0.0312910   0.0088737  -0.2616392  -1.5263137  -1.6334269
  -0.7666537  -0.3862454  -1.1917225  -0.3300430   0.0225854  -0.2053975
   0.5532817   0.3805494   0.4945359   0.0766067  -0.3709744  -1.2918342
  -0.0923669   0.1173130  -0.2245234  -1.3342574   0.9596848   1.5254457
   0.6982358  -0.8309773   0.8743243   0.0056466   0.3811636   0.0108490
   0.5889405   0.2766537   0.9451497   0.9333598   0.6197329  -0.0668842
   0.0269053  -0.1279787  -0.2239618  -0.0166371  -0.4251826  -0.8284110
  -0.0647416  -0.1359241  -1.0487255   0.1635996  -0.1850275  -0.0455730
  -0.9146163  -0.0291823   0.9743752   0.5206324   0.3020551  -1.1582733
  -0.2751066   0.3434519   0.3764586  -1.4196235   1.1863182   1.1713290
  -0.2823783  -0.5552880  -0.9457093   0.0925306  -0.1337373   0.0122385
  -0.2006270  -0.7728150  -0.0865906  -0.6739401   0.2215992   0.2359849
   0.0584640  -0.1172217   0.0867458   0.2210571  -1.1577561  -0.9627001
   0.1363736  -0.5358956   0.4370686  -0.3877474   0.2653972   0.0414598
   0.6635525  -0.7379517  -0.4323694  -0.2889643   0.1601504   0.4725887
  -0.0960708  -0.0802425   0.5265554  -0.2500252   0.1373023  -0.4528419
  -0.5002602   2.2277727   0.2088084   0.3932922  -0.1881378   0.1250779
  -0.1927636   0.3737252  -1.1302385   2.0470748  -1.5845319  -1.0670614
  -0.2607131  -0.0087259  -0.2070222   0.4672571  -1.6206466  -1.5822628
  -0.0912726  -1.8931557   1.1306989  -0.1503461   0.3521401   0.1446926
   0.9203475   0.0243747   1.6007556  -1.1959515   0.7954040  -0.3442449
  -0.0327622   0.0648221  -0.2559185  -0.1360384  -0.3787533  -0.4233820
   0.4685707   1.6192315  -1.0705698   0.0676396   0.0798580  -0.2018703
   0.0227125  -0.1402540  -0.4650390   0.1352078  -0.2107991   1.2064847
  -0.1455539   0.0112758  -0.0424511  -1.4070368   0.7059916  -0.4909157
  -0.0566729  -0.7883230   0.6304744   0.1380498   0.0115455   0.3378376
  -0.8168939   0.9407083  -1.2848135   0.3090491  -0.9054816  -0.4399329
   0.0224809   0.1584520   0.4293803   1.5535796  -0.5163508   1.5581312
  -0.6416286   0.4038648   0.1614701  -0.3030798  -0.2585865  -0.2269045
   0.3767791  -0.2643073  -1.0593106  -0.2342268  -0.0415391   0.7162974
  -0.3569713  -0.3520654   0.0528108   0.0951252   0.7140601  -1.9239972
  -0.0154542   0.2879294  -0.1019364   0.1535635  -0.0323872   0.2665096
  -0.2887471  -0.4392754   0.0985896   0.5082943  -1.4431212   0.4589388
  -0.2228460   0.1710038   0.1303008   0.4288433  -0.6866381  -0.0831208
   0.6716284  -0.0702348  -1.7282031   0.0220783   0.0899987  -0.3635978
  -0.0746323   0.1155060  -0.6864603   0.6672655   0.3705608  -0.2750169
   0.2331300   0.2495539   0.1934821   0.7243404   0.6167188   1.4189724
   1.2368574  -1.4336507  -1.1870823   0.5069320  -0.0740776  -0.0130848
  -2.7214656  -0.8126834  -0.3034527  -1.5772672  -0.1204888  -1.5828750
  -0.0377699  -0.2952195   0.4944057  -0.5874135  -2.0832312  -0.0874601
   1.0902230   0.5181851  -0.3851996   0.1693428  -0.2508194  -0.2266189
   0.3391390   0.6082886   0.9336145  -0.6502492  -0.5208476  -0.0228766
  -0.0538807   0.1479571  -0.0018557   0.9970745  -1.6132599   0.2346332
   1.5026895  -0.9031941  -0.2749488  -0.0694466  -0.2961981   0.0242061
  -0.9468309  -0.5371500  -0.7818589  -0.7295935  -0.3948477   0.5256788
  -0.0041519  -0.0228477  -0.0476654  -0.3040996  -0.8022331   0.4470980
  -0.2728691   2.2884893  -0.8843418   0.1735825  -0.1393535  -0.2733583
   0.1735121   2.2069876   0.9962423   0.3485595  -0.6859725   0.1969963
   0.1569154  -0.0095387   0.1647080  -0.3530055   0.2816128   0.3245030
  -1.8113152  -0.7159022   1.3736089   0.1745355  -0.1073789  -0.0684106
   0.6913904  -1.2553524   0.9776964  -0.5667903   0.5313661   1.2291797
  -0.0394688  -0.0185203   0.1312418   1.2168351   0.5394569   0.1120538
   0.8860791  -0.5389302   0.4042506  -0.0445849  -0.0617529   0.1822187
  -0.4456028  -0.3232475   0.0182700   1.1587439  -0.7241423   0.2877869
   0.1503254   0.0465355   0.1408043  -0.2128591  -0.0455188  -1.3867103
   0.7623583  -0.1199610   2.6169379  -0.0972857   0.1182324  -0.1011705
  -0.8075187   0.3251835  -0.5912297   0.3873558  -1.7520154   0.3454002
   0.1543328   0.0168899   0.0237658   1.0014148   0.6117803  -0.1257133
  -0.0522808   1.3983772  -0.5094246  -0.3088289  -0.1278777   0.2593468
   0.6131690  -0.7904257   0.7575303   1.3635255  -0.2855769  -1.2280275
  -0.1567172   0.0958722  -0.1278064   1.2740262   1.3709404   0.0397265
   0.0381890   0.2698796  -0.6222846  -0.2283670   0.0200970  -0.2134773
  -1.4772719  -0.3317873  -0.3092218   0.8659624   0.5531453   0.9350671
   0.2047327  -0.0149530   0.0291225   0.0760160  -0.1746760   0.4098652
  -0.0151859  -0.2061185   0.5771374   0.1120662   0.0768665   0.0819748
   0.5603071  -0.7906656  -0.3456680  -0.0876906  -0.2467587   0.1949524
  -0.2662628  -0.1582322  -0.1088634   0.0004589  -0.2733632   0.2264532
   1.3967320  -0.3052406  -0.4418328   0.1233589   0.1443120  -0.1044794
  -0.5521458   0.8417386   0.2168433  -0.2911375  -0.7735545   0.3201644
  -0.1076004  -0.2117810   0.0123942  -0.0646918  -0.0080744   0.0943440
   1.5913092   0.6495166  -1.4146963  -0.1904784  -0.0501058  -0.0423240
   0.1155479  -0.8403674   0.6186010  -0.7743334  -1.0277822   0.3281375
  -0.0384651  -0.2760827  -0.0138670   0.2724769  -0.5903811   1.3546436
  -0.2436703  -0.2318040  -0.1485389  -0.2335128  -0.1417067   0.0115431
   0.6539447   0.5176678  -1.0561253  -0.6530088   0.1944166   0.6054184
  -0.2746778   0.1756856  -0.3160918   0.6230485  -0.1300001   0.0608556
   0.8645164  -0.6092249   0.1977281   0.0459425   0.1969842  -0.0648655
   0.0396253   0.9770444  -0.6747217  -0.0376230  -1.2565584   0.6693956
   0.2049554   0.0391001  -0.2506375  -1.3490549  -0.9200435   0.4346042
  -0.1172537  -1.1592985  -0.4382383  -0.1216389   0.4310456  -0.0847980
  -0.4533243  -0.4775488  -0.5582632   0.5113091   1.0117666  -0.5752564
  -0.2290862  -0.2799781   0.0194951   1.1815372  -0.6484274  -0.1625990
  -0.3419508  -0.4611996  -0.3051769  -0.1066720   0.2332301   0.2235520
   0.9212158  -0.7540975   0.1993399  -0.2649347   1.8608824  -0.3748599
  -0.3410818  -0.3404964  -0.0144529  -0.4204264  -0.4855182  -0.6713168
   1.5659238   0.0655745  -0.3736225   0.0512234   0.1808988  -0.0147832
  -1.4254310   0.2329740  -0.4222426  -2.0343122  -0.9770207  -0.5542641
   0.1226938  -0.2578590  -0.1124354   1.8184905   0.2328014  -0.6664191
   0.1527719   0.6043277   0.6735438   0.0029426   0.1804413   0.0325365
   1.3878101   0.9349937   0.1130416  -0.1712631  -0.1388731  -1.9698018
  -0.2370187  -0.0655081   0.4900362   0.8204972   1.1386168   0.0360330
  -0.2345396   0.5428952   1.7179132  -0.4738395  -0.0269700  -0.3665185
   0.5894853   0.1440534   0.3653666   0.3688902   0.4077537   0.2022171
  -0.0089918  -0.0155809  -0.0255600   0.8430235  -0.1107363  -1.4640250
  -0.1621782  -0.7035437   0.0251317   0.2191117  -0.1015086   0.0462586
  -1.1482635  -0.3110661   0.7444256   1.0539345  -0.4157516   0.1846585
  -0.0289566   0.2180995  -0.1177598  -0.5060626   0.5706615   0.2553614
  -0.2077270  -0.6991758   0.4886068   0.3231013  -0.0276057   0.3099204
  -0.5938607   0.7372190  -0.3371417   0.2232588   0.5134607  -0.3430480
  -0.2589779   0.2614940  -0.0479594  -0.0346752  -1.2331905  -0.1920424
  -0.5340232   0.0896985   1.2232580  -0.0237993   0.4793038  -0.3213839
  -2.1003315   0.6800295   0.9638067   0.2472511  -0.8497245   0.8890256
  -0.1048474  -0.0818264  -0.3154342  -0.7573614  -0.6809465  -0.3075171
   0.2554882  -1.2595656  -0.0182606  -0.0360743   0.3068319  -0.1711357
   1.1471341  -0.8463457  -0.6392118   0.5524925  -0.5273513  -0.0851256
  -0.0324723   0.0731825  -0.1763879  -0.4085625   0.3875797   1.1982434
   0.2475621  -0.0020360   1.1700702   0.2110395   0.0776018   0.5906212
  -0.4078522   0.4761010  -0.4029184  -0.0739745   0.7522703  -1.2471024
  -0.2694965   0.1948277  -0.0811544   1.4104062  -0.3210361   0.1997057
  -0.3348334   0.4493659  -1.2619700  -0.1254138  -0.4474831  -0.0253460
   1.7195940  -2.4166443   0.2266665   0.2380784   0.8663842   0.6005182
  -0.0840959   0.3176990  -0.0391433  -1.7122098   0.3505144   0.9832932
  -0.0277446  -0.7377086  -0.0074870  -0.1319931  -0.1452581   0.0533436
   0.8529418  -0.2383563  -1.2538971   0.7216942   0.2290884   0.6241740
   0.3281156  -0.1567598  -0.1444291   0.9802911   0.2290543  -0.3098414
  -0.0539382   0.7202396  -0.3552086   0.0821778  -0.2979908   0.0270819
   0.1194033  -1.3653405   0.8194193   0.4008644  -0.6533297  -1.1683128
  -0.1770603  -0.0010798  -0.0405822   0.1008966  -1.2669004  -0.0698034
  -1.0185220  -1.1218954  -1.6144398  -0.0085722  -0.0021621  -0.2288636
   1.6212457   0.3023036  -0.7042329   0.1822329   0.4429704   0.1836508
  -0.1720785  -0.0361751  -0.2265528  -0.9530414   0.2010483  -0.5634135
  -0.5372457   0.6572630   0.2764588  -0.3771184   0.2367059  -0.1190221
  -0.0515205   0.3320003  -0.3818048  -0.2234513  -0.0746249   0.0892616
  -0.0401922  -0.1760969  -0.1377125   0.7247299  -0.5077823  -1.1586041
   0.0167787  -0.6327696   0.1143242   0.0822881  -0.1460925  -0.1013986
   0.8804327  -0.5794484   0.5102578   1.0951954  -0.6976428   1.1005903
  -0.0414978  -0.3010691  -0.2059963  -0.4398917  -0.2022111  -1.0280353
   1.9585608   1.7286243  -0.8741101  -0.0412757  -0.2159982  -0.0229734
  -0.0661073   0.9019074  -0.6485223   1.2900311  -1.3555937   0.3648927
  -0.1750485  -0.1663637   0.0830567  -1.6655428   2.3158963   0.1916631
   0.9458516  -0.9248403   0.6451079  -0.1467398  -0.1176871   0.1474604
   0.6335121   0.8057927  -0.8426031  -0.5186779   0.6374594  -0.9119723
  -0.1528058   0.1139619   0.3440246   0.0386350   0.7564303   1.6820067
  -0.6699685   1.8486117  -0.4957622  -0.2345351  -0.3765025  -0.0064221
   1.4010648  -0.1956351  -0.1993321   0.2429475   0.6553549  -0.8411197
  -0.1523414   0.0080953  -0.1906080   0.9619025  -0.4442676  -1.0220207
   0.0113041  -0.4821836  -0.8888182   0.1035473   0.2996199  -0.3501589
  -0.7607471   1.0111849  -0.2682950   1.0099635  -1.0335774   0.3350522
   0.1145564  -0.1541585   0.1720796  -0.0246880   0.4257138   0.0590619
  -0.0007896  -0.1474260  -0.7590271  -0.1671743  -0.3066018  -0.2271725
  -0.3602693  -0.6332282   0.6636627  -1.2699845   0.5689324   0.1337076
   0.6492097   0.0122475  -0.0122469  -0.3779326   0.6058345  -0.4319664
   0.0537522  -0.9517705  -0.9422888  -0.0597634  -0.1252314   0.2951071
   1.3857976   1.1733657   0.5367758   0.1957160   0.1058574   0.8940895
  -0.0652386  -0.0351037   0.0674757   0.3668610   0.8982583  -0.7508458
   1.8134247   0.5759269  -0.7455827   0.3318013   0.1196019  -0.0509584
   1.4227720   1.4628470   0.1249557   1.2869229  -0.8547693   0.9881588
   0.0061787   0.2792266   0.1232328  -1.0231152  -0.2504051   0.1105827
  -0.8769237   0.2813801   1.2735280   0.2968564   0.0043972  -0.0012183
   0.2039050   1.1814853  -0.3426618  -0.7313189  -0.9578878   0.2287955
   0.0759931  -0.3020534  -0.2210904  -0.9206631  -1.3347235   0.0178701
   0.5010738   0.6442912  -0.0712001  -0.0065546  -0.4661304  -0.1476027
   1.2524337   0.6317121   2.3353930   0.2473566   0.0325424   0.3655353
   0.1642367  -0.4348224   0.0663878   0.6113191   1.4072555  -0.6861982
   0.2422527   0.0876335   0.3042848   0.2273633  -0.0031386   0.0471174
   1.1584945  -1.1217571  -0.1982119  -0.1055775   1.3896159  -0.9090145
  -0.0934219   0.0454160   0.0507996   0.7982154   0.3743629  -0.8234739
  -0.5264133   1.6207502   1.2805679   0.0289517   0.0422592  -0.0789459
   0.3693876  -1.7836030  -1.2580436   1.4276930   0.1991336   1.6370612
  -0.2775922   0.0392060  -0.0821304   1.0850768   0.5497334   0.9008636
   0.6636712   0.1287229  -0.6949705  -0.1669821  -0.0570613  -0.1429321
  -0.3549452   0.2900344   0.5148271   1.1717855  -1.5752062   0.9746997
   0.1086579   0.3809988   0.1389440  -0.3975253   0.7601141   0.7843300
  -0.1763716   0.1390194  -0.2810035  -0.0480288  -0.2670831   0.1363252
  -0.3534901  -0.1888255  -0.1930791   0.4867674  -0.0281380   0.3464672
  -0.3488643  -0.0446480  -0.1971122  -1.5179166   0.5346407   0.4560009
  -0.0860552   1.1063199  -0.5435607  -0.0682486   0.0251872  -0.1311536
   0.5998725  -0.4979244  -1.0814255   0.4454558  -0.7429180   0.1980146
  -0.0620442   0.0499386  -0.0538105   0.6032609   1.1804132   1.3818458
   0.7471423  -0.1960913   1.6656508   0.0325495  -0.0366181  -0.1097093
   1.6824276  -0.0326879   0.1228710   0.2081022   0.9436949  -0.1714384
  -0.1832544  -0.3337233  -0.0886875  -0.5136821   1.6075132  -0.3261630
  -0.8527712  -1.0913125   0.9910767  -0.1050833  -0.0199600  -0.1784446
   0.3143801   0.7639121  -0.2231793   1.6321535   0.0710521  -0.0998969
   0.1117446   0.1377662   0.0655959  -0.7519217   1.3481369   0.3186280
   0.2133883  -0.7713521   1.2446991   0.2447663   0.1847862  -0.5224951
  -0.2510198  -0.0946519   0.4082545   0.2405569   0.1575819  -0.2547838
   0.0182876  -0.1292163   0.4742303  -1.2277699  -0.2036871  -0.9134234
  -0.7796144   0.6182081  -2.0529349  -0.1220962   0.1698024  -0.1532360
  -0.6548486  -0.3482205  -1.8066822   1.9690911  -0.4694403   0.0417626
   0.2051866  -0.2096428  -0.1735399   0.1801375   0.3008297  -0.6969665
   1.4561956   0.8542265  -1.2363157  -0.2577229  -0.4325811   0.1076604
   0.0395235   0.9712736   1.0463409   0.3667631  -1.1357383  -0.2500047
  -0.0045023  -0.0899137   0.0739567  -1.4404991  -0.6661463   1.5855999
  -1.0309038   0.2174372  -1.6425483   0.0352302  -0.1011914   0.0602261
   0.6458378   0.6738530   1.1253661  -1.0659159   0.6866170  -0.5824082
  -0.0317016   0.0279525  -0.1270276   0.0046888   0.3563409  -0.0264796
  -0.4287154  -1.3227535   0.9960074   0.1090018  -0.0713990  -0.1943158
   0.1088936   0.8062693   0.8745873  -0.5072424   0.0535700   0.5798393
   0.0421765  -0.4524351  -0.0773162  -0.0930273  -1.4203570  -0.1867667
   0.1131405   0.7210339   0.0148399  -0.0229783  -0.2515312  -0.2957923
  -0.3811555  -0.2434234  -0.2044760   0.4040073   0.6465014  -0.7144768
   0.3234129   0.0179416   0.0874728  -0.0769691   0.2506234  -0.9355174
  -0.6354280   0.6316861   0.6651683   0.1580363  -0.1335543  -0.2306746
  -0.7945987  -0.7529758   0.3106511  -0.2710796  -0.8774270  -0.7899698
  -0.4021388   0.1243464   0.2123167  -0.6940678   0.1227042  -1.6996284
  -0.1231268  -0.5233015  -0.2599116  -0.1754652  -0.0199152  -0.2280506
   0.6103126  -0.6217942   1.0138677  -1.3210107   0.2780934  -1.2175444
   0.0513478  -0.0517981  -0.0115243   0.1930394  -0.0544001   1.0196102
   0.1428919  -0.0430679  -0.2281309   0.0647174  -0.0492126  -0.1937656
  -0.9342809  -1.3773637   1.0524088   0.5443445  -0.0316398   0.2936768
  -0.0341761  -0.1438224   0.1256487  -0.1841421   0.6965486   1.1636543
   0.2136553   0.4731166  -0.2701966   0.0798625   0.1120460  -0.3930116
   0.3624028  -0.2847752  -0.4840054   0.0524521   0.9222344  -1.1337384
   0.1030597  -0.3424476  -0.2243938   0.5092747   0.4795688   0.7074279
   1.2143552   1.2758303   0.1269053   0.1310010   0.1185666  -0.0912971
  -0.0765922  -0.3909083  -1.1460533   0.2412716   0.2230915  -0.3455036
  -0.0364993   0.1370410  -0.0817268   0.6382616  -0.7151972  -1.0273845
  -1.2792941   0.9756320   1.2396896   0.0271438  -0.1147331  -0.0563519
   0.5876922  -0.9777071  -0.6530455  -0.8204321   0.2444280   0.5359404
  -0.4014375  -0.0198346   0.1125981   1.0047961  -0.5603949   1.2032135
  -0.8244212  -1.0921191  -1.4291959   0.2379610   0.0325941   0.0153824
   0.5337325  -0.3955134   0.5899076  -0.2980174   0.5613487  -0.3651721
  -0.1600766   0.0892514   0.0763256  -0.3973828  -0.2055096  -0.1742872
  -0.2747319   0.7092674   0.1795501   0.2773318  -0.0697686   0.2523183
   0.4828441   0.8005726   0.3709439   1.3182341  -0.0172269   0.2508850
  -0.4074117  -0.2438274  -0.2810687   1.6873462   0.0517703   0.0412523
  -0.9513685  -0.0605814  -0.8560305   0.2350527   0.0747331  -0.0505256
   0.1515514  -0.8871788   0.6067982  -0.8567879   1.6155888   0.1590272
   0.0700005   0.1231905   0.0449151  -1.3908646  -0.3459027  -0.8249718
   1.0241213  -0.2067356  -0.0383992  -0.1703651  -0.1623468   0.0224959
  -0.2355530   0.8442432   0.2069960   1.5832416  -0.9363791  -0.0894238
   0.0770832   0.4110962  -0.0418256  -0.0764658  -0.9740344  -0.1671389
  -1.1753808   0.3519587  -0.4840926   0.1210897   0.0873687  -0.0346775
  -0.1501345  -1.2854437   0.1666729   0.5694423   0.0779621   0.0903689
  -0.0619698   0.0723548   0.4391730  -0.1130298  -0.5627881   0.9303250
   0.4038514   1.6069465   1.2568301   0.0135766  -0.1791414  -0.3421898
  -0.8631172  -0.0705415   0.3565274  -1.0055811  -0.8846299   0.3763787
  -0.1471102   0.1516026  -0.1096408  -0.8632804  -1.1293924   1.0786451
  -1.6392635   0.8123676  -0.9760658  -0.0936516   0.4500726  -0.0440193
  -0.2471918   0.1146596  -0.6411537  -0.4181148  -0.2666192   0.7475628
  -0.6658573   0.2661637   0.0593822  -0.1754390  -0.3954409   0.1696746
   0.7158681  -1.4710100   1.9120864   0.1759409   0.0118151   0.2700920
   1.5471629   0.7511097   1.0484060   0.9268726  -1.1645592  -2.0055809
  -0.0843851  -0.0227064   0.0212480   0.9249195  -0.4759008  -0.7707937
   1.7199253  -0.2215760  -0.0566968   0.5920080   0.1017564  -0.1623442
  -0.5429783  -0.2949611  -0.2265676  -0.2438463  -0.8995551   0.8572974
   0.3844017   0.0212915   0.2660441  -0.9165711   0.8147877  -0.2646741
   0.3582174   0.6062019  -0.5691359   0.3684566  -0.4378892  -0.0634212
  -0.8032554  -0.1373035   0.4586029  -1.5859368   0.0528619  -0.2742712
   0.0218372   0.1526544  -0.3577616  -0.3315224  -2.5755718   0.0652350
   0.6030007  -0.7913606  -1.0719675   0.1238786   0.0144774  -0.0480557
   0.0080241   1.0269361  -0.2468394  -2.5422721  -0.9179435   1.1459615
   0.1031314  -0.3523147  -0.4628763  -1.3007318  -0.0622955  -0.4131994
  -0.5974138  -0.0964525  -0.1269484  -0.1735793   0.0306432   0.1589813
  -0.0956293   1.4501581   0.9539479  -0.3704575   1.5180449  -0.2229267
  -0.0243228   0.0649944  -0.1434528   1.1645412   0.6946968   0.0659428
  -0.1881367   0.1850332   0.1357731   0.0777656  -0.2730745  -0.0160137
  -0.8802722  -0.5303138  -0.2199338   2.0730956  -0.0328750   0.2997782
  -0.4385775  -0.4956005   0.1008268  -0.6678928   0.0728666  -0.4375606
   1.1099259  -0.7812750   0.3743850   0.0389583   0.2635959  -0.3645200
   0.6560792  -0.1138963   0.4822317   1.0801643   0.4189158  -0.6826305
   0.0489225   0.0051094  -0.2770252  -0.2710869  -0.3012195   0.8708213
   1.2865112  -0.7847722   0.1168113   0.1871879   0.0859843  -0.0424303
   0.0821902  -1.1018857  -0.6835444  -0.4019864   1.3329868   1.4082186
  -0.0961301   0.0782980   0.1888348  -0.8655351  -0.7421997   0.1894874
   0.7597545  -0.0149180   0.2068149   0.0454214   0.0482561  -0.2452742
   0.2329246   1.0466419   0.0014867   0.6311459   0.9538209   1.7295574
   0.5086328   0.1638281  -0.3216193  -0.1612595  -0.3496361   0.1267497
   0.6164018  -0.3919311  -0.4929034   0.0714798   0.0115725  -0.2346036
  -0.4626598  -1.9658203   0.1491584   0.1129408   0.3237107   1.2471976
  -0.2641056   0.2268129  -0.1007878   0.2718480  -1.2063428  -1.5068562
   0.3592630   0.2422419  -0.1870604  -0.0414886   0.1581832  -0.2137445
   0.9464376   0.7897705   0.3029708  -0.3637483  -0.4506006  -0.9772865
  -0.0419364  -0.2753998  -0.0232335   0.2845525   0.3567936   0.1310503
  -0.1506726   0.5664131  -0.7084854  -0.0100602  -0.0097158  -0.0067638
  -1.0763049  -0.2283562   1.2243341   1.6100134  -0.2421385   0.2943260
   0.1633271  -0.0668307   0.0092057  -0.0415062   0.9217856   0.4487048
   1.5793573  -0.7038202   1.4242387  -0.3285772  -0.3503909   0.0528619
  -0.1154834   1.9206634  -1.1974850   0.2112176   1.3682382  -0.7011901
  -0.1701258   0.3786636  -0.4077623  -1.4501820   0.5578673   0.1732384
  -0.0424565  -0.3499677   1.8480246   0.1168398  -0.1850132   0.0133338
   0.3790811   1.1676583   0.8551213  -1.4072227   0.0970995  -0.2205010
  -0.0044576   0.1861885  -0.2109906   0.9054387   0.2773627   0.2529380
  -0.7384152   0.1658752  -0.4682017  -0.3670556   0.0872923   0.0302736
  -0.8156172  -0.4386163   0.1684362   0.0512835   1.3171800   0.6227044
  -0.0160944   0.0302783  -0.0270037  -0.6334147   0.3393205  -0.1707853
  -0.0203505  -1.2981454  -0.6339790   0.4497927   0.1752788  -0.0955446
   0.9274879   1.2297536  -0.7837473  -0.1511937  -0.9224283  -0.7817430
  -0.0062086  -0.0986792   0.0459814  -0.9132761  -1.8049517  -0.2311476
   0.3725222  -0.9907396   0.1958160   0.0151003   0.1087232  -0.0027221
  -0.1671789  -0.9104550   1.6925620   0.7551580  -1.1511362  -0.8228143
  -0.0228702   0.0826548   0.0776433  -1.2625535   0.2644832   0.5448633
  -1.0484293   0.8739414  -0.4476914   0.1293852  -0.2277115   0.1880546
   1.1116213  -1.2310222   0.6175230   0.4149161  -0.2203273   0.5954959
   0.0544974   0.0604701   0.1956521   0.3699788  -0.9762129  -0.2909859
   0.9890187   0.0007632   0.2987768   0.2105989   0.0831558   0.2788023
   1.1699550  -0.0382365   0.5530635   0.4502922   0.7454571   0.5580645
  -0.1230333   0.0352713   0.1489311  -0.1129078   0.0717584   0.0450819
   0.6320321   0.1206117   0.2968227   0.3072622  -0.1576539   0.2432822
  -0.6477517  -0.6662133   0.5748795  -0.3855571   1.3545895   1.2884303
  -0.1493021   0.2660206  -0.0569560  -0.3739791   0.0541483  -0.0677150
   0.5441103   0.8715899  -0.3071442   0.0029967   0.1903964  -0.1761741
  -0.3462204   0.1981558  -0.6419998   0.0396946   1.0324750   0.2509151
   0.1646330  -0.0220903   0.0526687  -0.3038182   0.1106011   1.5294983
   0.3964678   0.3706059   0.3286151  -0.1827843  -0.2019273  -0.1906335
  -0.4103912   0.3077091   0.0977603   0.2502045  -0.0340674   1.4780577
  -0.0919096   0.2101207  -0.2017679  -1.7393698   1.1382470  -0.3367724
   0.5554740  -1.1326634  -0.3145130  -0.0252836  -0.3157082  -0.1431953
  -0.4509252   0.1359634   0.1428471  -1.0411396  -1.7604731   1.1409807
   0.1861236   0.3107986   0.0643539  -1.1329714   0.0676342   1.7085235
  -0.6966977   0.2559220  -0.1137859   0.2256506   0.2256900  -0.0135082
  -1.6850640  -0.5388494   0.6060505   1.3607965  -1.0343628   0.3231213
  -0.0385731   0.1818862   0.1650744   2.1204488   0.2761940  -0.3860056
  -0.3321365   0.3234255   1.7151036   0.3083332   0.1922423  -0.2223592
   0.6533540  -0.1336080   0.9314087   0.5477799   0.9350808  -0.7045677
  -0.0027623  -0.1499431  -0.1966314   0.1660587   0.6349245  -0.7495913
   0.2749033  -0.7874596  -0.1007169  -0.2025359  -0.0098100   0.2174434
  -0.1243980   0.6921576  -0.3611833  -0.3114540  -0.5224305   0.2587226
  -0.1982957  -0.1068305   0.2326834   1.0756543  -0.2530542   0.4179088
   0.5435720   0.5645916   0.1595978  -0.0574664   0.0226495  -0.0923446
   0.0219739   1.5116827   0.5431237   0.0425217   0.3941437   0.7178764
   0.0478609  -0.0077666   0.2410644  -1.5916575   0.1180753  -0.1513965
  -0.1196314  -0.1858730   0.8092025   0.1491058   0.0046885   0.3070273
  -1.4904327   1.2026937  -0.6119674   1.2258544  -0.3288183   1.4845582
   0.0545119  -0.2030300  -0.2538795  -0.4238390   0.2593314  -0.2120383
   0.0635163  -1.6373268  -0.4617571   0.0266660  -0.0911596  -0.1721632
   0.2846576   0.9033766  -0.8059153   2.7079091   0.0618795   0.7078857
  -0.0274495   0.2361486   0.0232980   0.1161313  -0.0678521  -0.6382709
   0.1987400  -0.3756804   0.8368631  -0.1172697  -0.2159788   0.1857018
  -1.4148144   0.4114409  -1.0664103  -0.5888894  -1.0927190  -0.6836178
   0.0359542  -0.2122735   0.0617225   0.1121744  -0.5783772  -0.6473048
  -0.4774563  -0.5474038   1.1274077  -0.0012962  -0.1278092   0.0224350
   0.2414126   0.3064518   0.1442531   1.3189590  -0.2939208  -0.0221868
   0.0244249   0.1281997  -0.0670683   1.1646308   0.0889136   0.2529216
   0.4691149   0.0010088   0.1160271  -0.2179706  -0.0034580   0.1221614
  -0.0137463  -0.6855929   0.1836829   1.2015115  -0.4961601   0.4030511
  -0.0668940   0.0141021   0.0740103   0.1993208   0.2621711   0.6514217
   0.1931998  -0.6518258  -0.2555788   0.2276027  -0.3177322   0.0110917
  -0.2766030   0.0079828  -0.0066365   0.7086142  -1.0889537   0.1251717
   0.2909463  -0.2555275  -0.0967135   0.6869486  -0.3644665  -0.1648573
   0.6393670   1.0243715   0.2142093  -0.1857936  -0.0613035  -0.2629764
  -1.6496451  -0.8983138   0.6899418   0.9107265  -0.1549866   0.7017782
  -0.1146951   0.3716861   0.1154112   0.1274670  -0.4780102   0.6222723
  -1.0369159  -0.5072877   0.6140258  -0.1092824  -0.0429602   0.0180074
  -0.6600626  -0.1468813  -1.1103219   0.7128195  -0.8022667  -0.0111077
   0.0448434   0.0878287   0.2597512  -1.1643258   0.3296336   0.0383987
   0.9922816   0.5322089   0.3855933   0.0635517  -0.0131376  -0.0543175
   0.1477049  -0.4610650   1.2690934   0.6539459  -0.5499318  -0.4421977
  -0.0509391  -0.1236239  -0.0606640   0.3602444   1.3986115   0.4162388
   0.6407913   2.4320924  -0.2534436  -0.1829570   0.0583235   0.2139650
   0.5448488   0.7571391  -1.0250497   0.0175867   0.8752900  -1.0384930
   0.0588786   0.2439314   0.1740753   0.8370497  -0.3721597  -1.6686465
  -1.3882861   0.3527662  -1.3665130   0.2427795  -0.1420519  -0.2143250
   0.9447655   0.3619414   0.4839868  -0.6035680   1.1810718  -0.2350137
   0.0043851  -0.0696672   0.1335259  -0.1864634   0.6065257   0.2669991
   0.3288681  -2.2688737  -0.5091302   0.2627761   0.1575102   0.4085965
   0.5860672   0.2773132  -0.3387944   0.6675787  -1.2531860   2.8584492
   0.2596043   0.1955986   0.0002762   0.6638638   0.2956366   0.5316729
   0.6903459   0.6213434  -0.8404853   0.1238743   0.0695840   0.2700287
  -0.3229750  -0.4554984   0.4955643  -0.7602662  -0.2936195  -1.0750480
   0.0044373  -0.0700355   0.0911257  -1.0663840  -0.1917496  -0.2412830
  -0.5589690   0.3182376   0.9488805  -0.0394892  -0.2033031   0.2879592
   1.4010164   1.2380143   0.0515984  -0.1059888  -1.0319898  -0.3333658
  -0.2066178   0.0939103   0.2006291   0.1073403  -1.1488531  -1.1132700
   0.2897294   0.4476623  -0.4238625   0.2434339   0.1801447   0.5104424
   1.1362852  -0.0730810  -2.4307451   0.2374586  -1.1297911  -1.1673086
   0.2673129  -0.0432114   0.0484247  -0.7734423  -0.1523023   1.0983815
  -0.0008733   1.5478058   0.2401554  -0.0315765   0.3887490   0.0511051
  -0.8568689   0.8043028  -0.4064701   0.2046369   0.4818710   1.6922034
   0.1312264  -0.3269013  -0.1943557  -0.6346748  -0.0413048  -1.0548561
   0.0763705   2.1479163   1.7086282   0.0493552   0.0396941   0.0370887
  -0.3051592  -0.2270425   1.3970225   1.0742557  -0.0258401  -0.6691912
  -0.1398548   0.1143024   0.2096969   0.8502232  -0.2538766   0.2046410
  -0.5196128  -0.2090252  -0.1220278  -0.3964161  -0.2819390  -0.1620296
  -0.0925961   0.9994220  -0.7892600   1.1635466  -1.2511159  -0.6686444
  -0.0740874   0.1438465   0.1661967  -0.0444427  -0.0372126  -0.0157754
   0.2100054  -0.9136001   0.1091703  -0.3019719   0.0935427   0.2011126
   0.3958248  -1.6021979   1.0410223  -0.1632351   0.7255018  -0.2581193
   0.1069989  -0.0649334   0.1573673  -0.4427513   0.2345093   0.4481905
  -0.2386540   0.6647689  -0.4304200  -0.1063633  -0.0959382   0.2209723
   0.8341060   0.4066143   0.2807994   0.4279540  -0.4005869  -0.4713251
   0.1533471   0.3979920   0.0264096  -1.0736440   1.1673092  -0.0699221
  -0.6537802  -0.2246635  -1.0004356  -0.2424598   0.0959435   0.0713300
  -0.2828523  -0.5596790  -0.8186083  -0.3606907   0.6114244  -0.1364276
  -0.1443316  -0.0688708  -0.1399973  -0.6318735   1.3444231  -0.0729285
  -0.1569662  -0.7508151   0.1136537  -0.0613255   0.3086857  -0.2202825
   0.4710625   0.8021141  -1.1708486  -0.6076443  -1.3069925  -1.2962425
  -0.0993667  -0.3354635  -0.1471368  -0.2987756   0.6325426   0.1006000
   0.4007816   0.1725879  -0.3564716   0.3255625   0.1977063   0.1781599
   0.4548393   0.4082410  -0.1693237  -1.7702066   0.5536427   0.4904138
  -0.0153131   0.3600244  -0.0860061   1.2892537  -0.0785835  -0.0262075
  -0.8078281  -0.2571402  -0.1492010  -0.3869360  -0.2191468  -0.3153677
   0.1269628  -0.2837317   0.7580538  -1.4049858   0.7124352  -1.2059127
   0.2067227   0.0652017   0.0274037  -0.3738610   0.2403706  -0.4493064
  -0.0707159   0.2374508   1.5238395   0.1037054  -0.2492572  -0.1217873
  -0.1611073  -0.1988248   0.7872710  -0.0262018  -0.0707992  -0.6047416
  -0.3739113   0.1684796  -0.1406467   1.7236167  -0.3524009   0.6143936
  -2.0383372  -0.6340332  -0.2603512   0.0562102   0.1511777   0.1224390
   0.7657614   1.0638161   0.2969279   0.4885436   1.0855011   0.6585451
   0.2107386  -0.2482708  -0.4314773   2.3529880  -0.1263932   0.9216090
   0.1739587  -0.3506297   0.4342251   0.1497594  -0.2692191   0.0367989
   0.1182161  -1.5887713  -0.2478257   0.0030644   0.6730807  -0.4727130
  -0.1572978  -0.0424956  -0.1884227   0.9467031   0.6225808  -0.3996448
   0.5215951  -0.6966847   0.8743348   0.2548915  -0.1761957  -0.1770518
   0.5135975   1.7124428  -0.2793944  -0.9013715   0.5647520   0.3202980
  -0.3571432   0.0874097   0.0640530  -0.3541091   0.7618866  -0.3853729
   0.1269126  -0.5794569  -0.5697867   0.0498655   0.0578629   0.2627282
   0.4134035  -0.7270538  -0.1284565  -0.6203489  -0.3372483   0.4424378
  -0.0465504  -0.1282362   0.1603260   0.2449482   0.4335316   1.8809795
  -0.7632037  -0.0423953  -0.5142879  -0.0800858   0.1807626  -0.2523208
   0.3825713  -1.6119798   0.2513654   0.0248293   0.6596602   0.0629603
  -0.3017286   0.2148877   0.3256865  -0.6374221  -0.4889270   0.8363878
   0.6624731  -1.9998398  -0.1010696   0.0983715  -0.0536672   0.1009820
   0.6254156   0.7269743   0.4608410   0.2889704  -0.4422129   0.2582609
   0.0206307   0.0264318   0.2863225   1.2040958   0.3827592   0.0101892
  -0.4545034   0.2653513  -1.7863495  -0.1206995   0.0540029  -0.1384076
   0.1423720   0.7797511  -0.4723778  -1.6942750  -0.8658346   0.0147131
   0.0821702   0.2456725   0.2172011   0.5535628  -1.4072733  -0.8655138
  -1.3035072   0.6651152  -0.9682505   0.1264548  -0.3818189  -0.0531058
  -0.6174863   1.3371822   0.7505636  -0.2072448   0.3570769  -0.8130333
   0.1960504  -0.2929481   0.0049741  -0.1255814   0.0668014  -0.8522055
   0.5563096   0.8950298  -1.1774600   0.2337123  -0.2172686   0.1333276
   0.4992489   0.5002784   0.0419050  -0.7735908   0.0742597   1.3138170
   0.1169596   0.1109296   0.1753134   0.9512238   3.0561430  -1.0944499
   0.9750270  -0.9739745   0.2001128  -0.2720111  -0.3565186   0.0355986
  -0.6904357   0.7810247   0.9903867   0.4871526  -0.8836192  -0.0294805
   0.2388400   0.0245269  -0.4353021  -0.1947435  -0.9281883   0.8928962
   0.2412651   0.9015267   0.1009945  -0.2208406   0.1574957   0.0834118
   0.0517814  -1.2719486   1.1709118  -0.1374708  -0.2100250  -0.9398766
   0.0714306   0.1385553  -0.1842355  -0.4984122   0.3846087   1.1396822
   0.4715408   0.7897122  -0.0478361   0.2180490   0.0309706  -0.0820993
  -1.1459594  -0.8207052   0.3226219  -1.1202059   0.0869570   0.9037226
   0.0417894  -0.0525550   0.1800317   1.2874107   0.2544544   0.4418828
  -1.4681886   0.6656555   0.1439450  -0.2468018  -0.1930020  -0.0485324
  -0.0958066  -0.8350018  -1.2880523  -0.8048666   0.7974461  -0.1982060
  -0.1650968   0.1064709  -0.0890158  -0.0666556  -0.7336498   0.7307833
   0.2253757  -0.0923329  -0.2601706  -0.3253496   0.1613932  -0.0151432
   0.2311491  -0.0119160  -0.3243507   0.9027073   0.5232152   0.9323738
  -0.1938822  -0.1813295  -0.1620497   1.5297047  -1.0969203   0.2302438
   0.5919522   0.5453617   0.3962060   0.0791111   0.2029554   0.0308734
  -1.0215917   0.0508165  -1.0144988   0.7605088   1.3967535   0.3724205
   0.0270496  -0.0638665   0.2824504   0.4093136   0.0996313   0.1531408
  -0.2807732  -1.0729045  -0.6936557  -0.2534724   0.0753832   0.3396373
  -0.9482780   0.1147901  -0.7820176  -1.2134076  -0.0938007  -0.0522734
   0.2859901   0.1773564   0.1257827   0.3949626  -0.0658333  -0.3928733
   0.8412173   1.6681430   0.4191463  -0.0834206  -0.1217893  -0.3694658
  -0.7186379   0.1489169   0.1662958   0.3902893  -1.6865927   0.3320065
  -0.0286776  -0.0430536  -0.1308414   0.6843758  -0.4061164   0.2332119
  -1.3919506   0.3135347   0.3831365   0.0186843  -0.5151886   0.0719459
  -0.0366791  -0.2367746   0.0880445   0.7847729  -0.0571512  -0.6406487
   0.0372139  -0.3484926  -0.0163429   0.8543714   2.1116531   0.4842734
   0.1194276  -0.6680120  -0.5960193  -0.0381517   0.2679685   0.3472988
   1.0765604  -1.7472047  -0.5469054   0.3066061  -1.0907416   0.9678117
   0.0832319  -0.0251498  -0.1105314   0.8922310  -0.1176288   1.0899433
   2.1563115   0.0763556  -0.2837981  -0.4509273  -0.0117345   0.0883297
   0.9582640  -0.1246850  -0.4011880   0.1505658   0.1454013  -0.7815910
  -0.0494248  -0.0548499  -0.2259860  -1.0007644   0.2615817   0.1741107
   0.0973719   0.5583055   0.0953095   0.0651336  -0.2706855  -0.3770512
  -0.7264271   0.2633190  -0.7777456   0.5682391  -0.4043942  -0.2134381
  -0.1535933  -0.1954697   0.1867311  -0.0045664   1.3536383   1.1909044
  -0.5545160   0.6411558   0.3448206   0.2231838  -0.2176301   0.1297087
  -0.7328628  -0.9415048   0.2923278  -0.8383458   0.2986574  -0.4207254
  -0.2262308  -0.1524718  -0.2459694  -1.1244291  -0.4715309  -0.0018706
   0.7755670   0.8340908  -0.1153475   0.0331306   0.2782267   0.1866159
   0.2012737   0.8656192  -0.7922685   0.3425834  -0.5922073   0.7434715
  -0.0116191   0.3930133  -0.3792918  -0.0235764   0.4560615   0.7030147
   0.8619973  -0.4209222   1.0703456  -0.0285768  -0.2307590   0.0742387
   0.1455100  -0.1509019   0.1002182   0.7488506  -2.0698347   0.5744177
   0.0117285   0.1519875  -0.0396472   0.2903973   0.2158875   1.4352244
   0.3273191  -0.2449695   0.3977400   0.0167398  -0.1012420   0.1527917
  -0.5528089  -1.0546997   0.0567543  -0.1634731   0.4408007  -0.2430186
  -0.0758979   0.0726151   0.4769793  -2.1464174  -1.2423633   0.3054389
   2.5996447   0.5257981  -0.5972274   0.0301098  -0.1616499   0.1501170
   0.6535738   0.0908141  -0.6987649   0.2780429   0.6786144  -0.6493586
  -0.1089792  -0.1959410   0.0190994   0.5667956  -0.4544902   0.1805091
   0.5812557  -0.5183996  -0.2381574   0.0147199   0.1506764   0.1081031
   0.6362412   0.1037544  -0.5440849   0.3521347  -0.7974856  -0.5595549
   0.1896842  -0.0932044  -0.0122013  -0.2668453  -0.0158674  -0.2413050
   0.8612936   0.7376132   1.0980803  -0.0916276   0.1572125   0.1271682
  -0.4336252  -0.3705018  -0.1908701  -1.1559409  -0.5112118   0.9375941
  -0.2718732  -0.0200455  -0.1213483   0.4131915   0.0103071   0.2230450
   1.1427519   0.8686486   0.2039271   0.2833074  -0.3268264  -0.0894493
  -0.2054206   0.3777750  -0.0619195  -0.8123404   0.0500137  -0.4326926
  -0.1910515  -0.1809250   0.1486592  -0.9181117   0.3889646  -1.3362083
  -1.7163389  -0.4033145   0.6862578   0.0561801   0.1161457  -0.0745354
  -0.1748430   0.9868594  -1.2008526   0.4646344   0.1883376   1.5538316
   0.2012096   0.2190890   0.2921199  -0.5504777  -0.0293444   0.5855113
   0.5791693  -0.0904457   0.4014307  -0.0184127   0.1557955  -0.1456973
  -0.0305850  -0.0414809  -0.2075157  -0.8147616  -1.4974504   0.3642597
  -0.2538054   0.4345889   0.2931961   0.1880085  -0.7263471   0.7602963
   0.0322238  -0.5552319   0.9311947   0.1664030  -0.1785105   0.4308644
   0.7065437   1.1580884  -0.1308504  -0.5919728  -0.3537026  -0.5089504
   0.0688673   0.0463790   0.4662630   1.1247642  -0.9983767   0.4729750
   0.2327204   0.5145290  -0.9104288  -0.0239763   0.4654777   0.0771653
  -0.0355561  -0.0851782   0.0989031  -0.0410590  -0.3476556  -0.5836532
  -0.2093248   0.0988082   0.4248570  -0.4574934   0.0547838  -0.1471335
   0.2999060  -0.2070397   0.4684269   0.0245482   0.1162391  -0.1583957
   1.0156223  -0.1016550   1.3054281   0.6782398   0.9795740  -1.3007096
  -0.5121356  -0.1353349  -0.0878377   0.0634617  -0.7733075  -0.8187526
   0.2565252  -0.2834885   0.7900816  -0.2126429  -0.0909664   0.0082218
  -0.1127388  -0.1865204   0.4530274   0.7764669  -0.3234855   1.4716918
  -0.0082094  -0.0306288   0.1677319   0.9985241   0.5940750   0.7001584
  -0.2425016  -0.6065378   0.1259332  -0.2647155  -0.0392586  -0.1365199
   0.6623836  -0.3829844   0.4767614   0.6720806  -0.3699233  -0.4845546
   0.1562604  -0.1128352   0.0128970   0.0349027  -0.4840095   0.7692047
   0.2291875  -0.0618939   1.5949659  -0.1493382  -0.3813416  -0.1578844
   0.4021453   0.2669081   0.6930247   1.4457806  -0.2173542   0.2923995
   0.1005147   0.2049219  -0.2043054  -1.3917669  -0.9168859  -0.7795327
  -0.2035660  -1.3362502  -0.2890183  -0.1347874   0.1109313   0.5460358
  -0.2007821  -0.2964709   0.2999948   0.5157657   0.1424069  -0.1941162
  -0.2317337   0.0732292  -0.2192490   1.0191723  -0.0547830   0.1321580
   0.3889422   0.3433578  -0.0347067   0.1615272  -0.1556776   0.0830568
   0.3853860   2.4945052  -1.3749267  -0.7100457   0.4601608  -0.2467234
   0.0446283  -0.0972295  -0.2285285  -0.0305368  -0.5714912  -0.4280706
   1.0219524  -0.4414899  -1.3541890  -0.2059296   0.0826786  -0.1373391
  -1.1301556   0.8485160   0.0612063  -0.0448925  -0.1557970  -1.6707484
   0.0569382  -0.1145853  -0.1621193   0.1683097  -0.2836091  -0.1513178
  -2.2425489   1.3174919   0.1199502   0.0797019   0.3230098   0.0623788
  -0.9207280   0.5939162   0.6028879  -1.4482164  -0.9929141  -1.3822968
  -0.0642767  -0.1132078   0.0410944  -0.7639109   1.3245205   0.3863658
  -0.4076498   1.3126408  -0.0220336  -0.1009907  -0.0081165   0.0469002
  -1.9071858  -1.3550977   0.1355228   0.0865634   0.1894351  -0.8955747
   0.1440528   0.2221173   0.0101032  -1.9169703   0.2016999  -0.0250085
  -0.8194852   1.0169013  -0.1999225  -0.1857820   0.3386102  -0.0468096
   0.3583776   0.7897621   1.3240790  -0.2844473   0.8567284   0.2471523
   0.2830094   0.3478603   0.1073024   0.7962317   0.0127824   0.8153423
  -0.3032173   0.4079175   0.6572645   0.1827978  -0.0741011   0.3327103
  -0.6301618  -0.0242875   0.4459057  -0.1887514   1.8866357  -0.7655161
  -0.1243945   0.1878030  -0.2467364   0.7591518  -0.2441651  -0.7040766
  -1.1154405  -0.7950681  -0.2605817   0.1166633  -0.1563826  -0.2000936
  -0.2620218  -0.1470918   2.0489819   0.1348903  -0.0991948   0.2429189
  -0.0206787  -0.1294752   0.0304084  -1.1387253   0.6508531   0.3088724
   0.7313977   0.4394798  -0.1390535   0.1868953  -0.2399172  -0.0139738
  -0.4005922   0.6969212  -0.4688566   0.6072394  -0.5518403   0.2559949
   0.2761472   0.2854111  -0.0810483   0.8590627   0.9055689   0.5816952
   0.8234354  -0.3951921   1.2215530   0.0477692  -0.1454073  -0.2337308
   1.1103657   0.9843490   0.3416140   0.5318817  -0.3026489  -0.3618125
   0.1421970   0.5682749   0.4562187   0.3974091   0.3125483  -0.1874094
   0.6370027   0.6506088   1.0847397  -0.1441718  -0.0505377   0.0246006
   0.1062591   0.7719383  -0.6078127  -0.2197243  -0.0080293  -1.2679534
  -0.0834640  -0.1582521   0.0099788  -0.7572985  -0.4525034   0.0033183
  -0.4392528   0.2127571  -1.1819786  -0.3135064  -0.1798239   0.0967499
  -0.1751482  -0.3490620   1.1048356  -1.2616166   0.6062948  -1.4985374
  -0.5631383  -0.1210089  -0.3227851   0.1205981  -0.3678725  -0.4230776
  -1.0605574   0.2857665   0.4575557   0.1192046   0.1523840   0.2342767
   0.6104065  -0.0175811   0.3774270  -0.0612132  -0.2791100  -0.1802267
  -0.1801653  -0.4338677   0.1450149  -0.0098372   0.0368358   0.0578388
   0.4907644   0.2090378  -0.3878991  -0.1630238   0.3156354  -0.2999631
  -0.1114659   0.4589421   1.4952701   1.1230301   0.1738253  -0.5272588
   0.1017846  -0.1591707   0.1455387  -0.2680756   1.3928168  -0.5597257
   0.0261727  -0.3657885  -0.2547857  -0.1286598   0.1220456  -0.1873672
  -1.4968857  -1.5992806  -0.7052371   0.2444162  -0.0810589  -2.4661205
   0.2376974  -0.2150780   0.1278728   1.7720836  -0.7857571   1.7891347
   0.5668316   0.4428860  -0.2217801  -0.0407056   0.1524782  -0.4547779
   0.0108491   0.4273261   0.6798287  -0.2037680  -0.3893777   0.4971015
  -0.3267101   0.1061011   0.0653866  -0.8099230  -0.0768445  -0.4431573
   0.0078211   0.8441017  -0.3478450   0.0343429   0.1444008   0.1062339
  -0.4025936   0.3456045  -0.7035075  -0.9582347  -0.5606365   0.1604469
  -0.0308957   0.3394057   0.3011060   0.4341211  -0.2276801  -1.1683704
  -0.7344236   0.2091825   0.3301757   0.0807634  -0.0228011  -0.0070794
  -0.2943268   0.5507449   0.4666952  -0.5121467  -1.8905294   0.8061637
  -0.3951596  -0.1374741  -0.1236178  -0.1322116  -1.0110849  -0.6578130
   1.4477912   0.9903761  -0.0097981   0.0882890  -0.2397312   0.0617109
  -0.6518729   0.1910078   0.6015754   0.0868274  -1.4193983  -0.5292611
   0.0753349  -0.1322860   0.2968455  -0.9524717  -0.8567854   0.5474409
  -1.4800495   0.1166620   0.0134267   0.0176113   0.0784000  -0.3803964
   0.1798016  -1.0241698  -0.0225567  -0.9523136  -0.1748188   1.4134029
   0.2855016  -0.0792955   0.0861552   0.0324260   1.0969374   0.0420402
  -0.4793085   0.4953128  -1.4707934  -0.3378828   0.5615575  -0.1367369
  -0.5480004  -0.9895960  -0.1822366  -0.8661445   1.1984777   1.0689365
   0.0597266   0.1423588   0.1488309  -0.8779697  -1.3360773   0.8661329
   0.0039270  -0.5444459  -0.9697803  -0.1250244  -0.0587641  -0.0263543
  -1.8075793  -0.0522802   0.8185747   0.6885977   0.4819231  -0.0624207
  -0.0578707  -0.0066429   0.2699166   0.7435561  -0.9278050   1.4249184
   0.9902939  -0.0642432  -0.9791571  -0.1075913   0.0455867  -0.2127493
  -0.6951832  -0.2114617  -0.4702481   1.2449342   0.9741552   0.0542374
  -0.2986014  -0.0673456  -0.1308767   0.0452016   0.4680426  -1.1435246
  -2.0986741  -1.0674380  -0.1887103   0.0307480   0.0476722   0.1714886
  -0.7365776  -0.4448951  -0.5400862  -1.0263206   0.0205724   0.0353966
  -0.0692538   0.2126267   0.1718105   0.1283433   0.8396892  -0.5661041
  -1.5680771   0.3696910   1.1924062  -0.1526595  -0.0324607  -0.0887215
   0.1186582   0.5854180   1.0862718   0.9988959   1.0773405  -0.5086837
   0.1254734   0.1566240   0.2230116   0.4972286   0.2978056   0.5449224
   0.6951178  -0.5662093   0.0528258   0.3323224   0.3321123  -0.2546138
  -0.7574466   1.2012547   1.1660545   0.3523864  -0.2035381   1.4459784
   0.1357604   0.3118493  -0.2415521  -0.4726233  -0.5713239  -0.4899171
  -0.6193385  -1.3133812  -0.2452417   0.0775145  -0.2021404   0.5390244
  -0.2513922  -0.0368908  -0.2946979   0.0561196  -0.1387169  -0.9423659
   0.0247344  -0.1270793  -0.3275996  -0.2502930  -0.1724115  -0.6815627
   0.1110021   0.4412354  -0.2777066   0.2204823  -0.0551222   0.2608872
  -0.2309471  -0.1873512   0.9260754  -0.0502905  -1.1957477  -0.3138309
   0.0649142   0.0539244  -0.4315517   0.7453785  -0.2447562   0.4487430
  -1.3092726   0.2945565   0.0537603  -0.1398591   0.0879600   0.0022809
  -0.8176886   0.8703915   1.6108316  -0.2978788  -0.0420156   0.7619994
  -0.1102186  -0.1335103   0.0488078   0.1848873   1.1421710   0.0732060
   0.3648573   0.7356631  -0.0235684   0.0764900   0.1944816  -0.1453034
  -1.8232914  -0.0157917  -1.3265853  -0.1236490   0.1616412   1.9935544
  -0.0707531   0.1339373  -0.1522831   0.6980215   0.7522413   0.1910194
  -1.1886821   0.1454674   0.2444310   0.3528831  -0.1638213  -0.1171077
   0.8044794   0.8584569   0.3669293  -0.7900141   0.5372593  -0.1843355
   0.0565003  -0.1465854   0.2103652  -1.5391070  -0.5139790   0.4004384
  -0.3731805   0.2102243   0.0741194  -0.1481360  -0.0306137  -0.2111838
  -0.1050319  -1.2276652  -0.0130201   1.0122769   1.3542826   0.3808707
  -0.1619515   0.2059180  -0.0389053  -0.2187437  -0.2164059  -0.9909795
   0.0920079  -0.4200199  -0.5712196   0.1249074  -0.2085041  -0.0105882
   0.7302669  -1.1443934  -0.5120965  -1.8480262  -0.9932264   0.1790633
  -0.3395986  -0.1996308  -0.0821328   0.3738914  -0.7775673   0.4574097
  -0.4708940  -0.6963100   0.1285937   0.1278322   0.1077088  -0.1031086
   1.9417259   0.7767943  -0.4248729  -2.7836213   0.2048962  -0.8373380
   0.0575982   0.0726063   0.0170585   0.1275458   0.3756034   0.1075222
   0.1178915   0.2469389  -1.4195130   0.2701304  -0.1968141  -0.0418244
   0.8913615   0.7376556  -0.7031938   1.0604017   0.7763070   0.5551956
  -0.2007297  -0.0100529  -0.0501503  -0.0705657   0.7556038   0.3307463
   0.6942449  -0.5395293  -0.2190506   0.1200294  -0.0722892   0.2822081
   0.5960659   0.3514637   1.0480862   0.1521355   0.5343766   1.6681920
  -0.2333089  -0.0516959   0.0918923   1.4207911   0.2151910  -0.3217349
   0.1901798  -0.7661210   1.3230556   0.0972406  -0.3778914   0.1096359
   1.9286513   0.9178401  -0.3548119  -0.1294888  -1.0112526  -0.1528225
   0.0135959   0.0447587   0.3062400   0.6748986  -0.4622161  -0.0624684
  -0.3106135  -0.7197006  -0.8707275  -0.1356222  -0.0071850  -0.0487543
  -0.4327299   0.4817725  -1.3439790   1.5198619  -0.2462632  -0.0105533
   0.0537568   0.1303813   0.1911199   1.6727616   0.5288345  -0.1287559
   0.9623930   1.0942247   1.2078203  -0.0986709  -0.1548769  -0.0290570
   0.7831694  -0.7364009  -0.5479156   2.1337337   0.2900846  -0.0586180
  -0.0009049  -0.2146163   0.2854821   0.4257933  -0.7929989   2.0958111
   0.4584687   0.3594455   0.0463035  -0.1405803   0.2366629  -0.3030166
  -0.9616184  -1.1561030  -1.4131241  -0.6821003  -0.2160807  -0.5704710
  -0.1477376  -0.1655353   0.0581975   0.3982868   1.0689447   1.0796366
   1.0839418   0.5929277   0.8112411   0.2603908  -0.0410076   0.0333666
  -0.4849474  -0.5069731  -1.7528902   0.0468063   0.6725999  -0.9077577
  -0.3454831  -0.2258553  -0.0810378  -0.3412714   0.8982225  -1.0648657
  -0.5945949   0.2151294   0.4006297   0.0638349   0.0899516  -0.2816052
  -0.9884633   0.8143835  -0.2942039  -0.9473743   0.9945404   0.5837187
   0.2080200  -0.3172325  -0.2664692  -1.7711165  -0.5257173  -0.5629935
  -0.5652505   1.2157304   0.5950661  -0.1525072   0.1063158  -0.1427365
  -0.3908463  -0.7445112  -0.6092875  -1.2777622   0.4963963  -0.7916281
  -0.1793413  -0.1626890   0.0898083   1.0651774   1.3483071  -0.6585826
  -1.5945499  -0.1225514   1.2593045   0.0866480  -0.0269192   0.2812435
  -0.7639166  -0.0084849   0.1784745  -0.4721498   0.5188307   0.7256234
   0.3144532   0.1181321  -0.4472828   0.4675565   0.2510411  -1.2016661
   0.5743993  -0.7491052  -1.3041880   0.3967245  -0.2111665   0.1852340
   1.7181649   0.1430173  -0.5744240   0.4055749   0.9706792  -0.1928892
   0.0235746   0.0729511   0.1666126   0.3909090  -0.3590418  -0.7907054
  -0.3775911  -1.0070230   0.4813081   0.2547124   0.1456854   0.2418074
   0.2511753  -0.8134381  -0.0308286   0.0615661   0.2091362   1.2676854
  -0.2191758   0.0771857   0.2092868   0.6454083  -0.8570329  -0.4977874
   0.0746529   1.2681584  -0.9258761  -0.0553146   0.1701205   0.2874756
   0.0197460   0.5852211  -0.4498756   0.2258858   0.1118194   0.8118879
  -0.1306019  -0.1648769   0.2389070   0.7165270   0.6239796   1.1471872
  -1.0271904  -0.4177566   0.5220633  -0.2095929   0.3139220   0.1984783
  -0.2368691  -0.2258414  -0.2110858  -0.7606035  -1.2171657  -0.5728360
  -0.2302884   0.1740005   0.1739629  -0.2625504   0.7797253   1.2322372
   0.6663397  -0.3380611  -0.0171105   0.0985641  -0.0513600   0.3533599
  -0.2830828  -0.2540238   1.2837443  -0.2573449   0.0572832  -0.9441921
  -0.1588999  -0.2571484   0.0043513   2.3565044   0.5304197   0.8016363
   0.4081752  -0.9652806  -0.6893022   0.6106438   0.0316635   0.0576285
  -0.1663032   0.5248637  -0.4388348  -0.7480834  -0.6730120  -1.6406982
   0.3629250   0.1207417  -0.0897901   0.9564962  -0.0620514   0.4341793
   0.1084045  -0.5201198  -0.1241401  -0.1312212  -0.1745451  -0.0705309
  -2.8207297   1.5440011  -0.8101436  -0.4951722   0.1989392   2.1112132
   0.0024899  -0.0937771  -0.2231075  -0.0220626  -1.6590178   0.0830871
  -0.4530389  -1.6851286  -0.1819203   0.0516543   0.3901826  -0.0228029
   0.5685573   0.6011707   0.3258499  -1.2480943   0.4926867  -0.7202491
  -0.1703259   0.1934435   0.3005441  -0.7923513  -0.4413576   0.3285145
   0.9389189   0.1290246  -0.4812155   0.1163143  -0.5352585  -0.2398429
  -0.5959803  -0.3894997  -0.6212062   0.5385015   1.6098974  -0.7167678
  -0.3047850  -0.3156126   0.0344646  -0.1006815  -0.1072448   0.8504351
  -0.0875201  -0.5598767   0.8295016   0.1215761   0.2534063   0.0141682
   0.7866635  -0.6197882  -0.5419447   0.1105649   0.2876617   0.9962971
  -0.3149208  -0.2668093  -0.1443520  -0.3872747  -1.1721580  -0.9668949
   1.0868200   0.2931236   0.0737853   0.1242281   0.0111041   0.1603904
   0.4765078   1.3166499  -1.2496243   0.0594735   0.0833767  -0.9965032
   0.0583236   0.2576236   0.0548148   0.8917385  -0.2152759  -0.2732167
  -0.5422150  -0.7023966   0.2416911  -0.2330731  -0.1298215   0.1216471
  -0.9673160   0.1545379  -1.6598417   0.3095462   0.2155209   1.1991564
  -0.0372184   0.1485325  -0.1638859  -0.3928824   0.0972779   0.5240240
  -1.2193112  -0.1077553   0.4608215   0.2067911  -0.3182412   0.3832976
  -0.5130754  -0.2909053   0.1688094  -0.1113522   1.8338275   0.3163365
   0.1357329   0.0931831   0.3348542   0.3828447  -0.3727755  -1.5916524
   0.0534927   0.2858289   0.8801892   0.3375956   0.3493789   0.2335657
   1.0124174   0.6063014   0.3367392  -0.2550814   0.4151421  -1.2405742
   0.1258909   0.1143157   0.1221209   0.5101710   0.7097358  -2.6641335
  -0.8117986   0.6620348  -0.2078187  -0.1573648   0.0696153  -0.0577751
   0.4724255  -0.5385910  -0.0049519  -0.0912157   0.3862226   1.6175965
   0.3642057   0.1566601   0.1325977  -0.4872155   0.5973862  -0.6585240
  -0.9776149   0.6203219  -2.4802830   0.0558759   0.0299268  -0.1332691
  -1.1398909   0.6955537  -0.5279278  -0.2234152   2.1757660   0.2691593
  -0.1198602  -0.1524829  -0.4656554   1.6122103  -1.3876433   0.9996381
   1.5993688   0.2244151   1.5190035   0.0420787  -0.1891126  -0.1913703
  -1.3450270  -0.6748984   1.2454808   0.2004586   1.6793404  -1.2223544
  -0.0683356  -0.0685227  -0.1743112  -0.6955532   0.8199048  -0.0063484
   0.8319405  -1.0361747   1.2318491   0.3486558   0.1182888  -0.0558780
   0.0658656  -1.0907542  -0.1283521   0.3694198   0.0297513   0.6924483
   0.3154339   0.0440497  -0.0152024  -0.1940752   0.5265509   0.1769135
  -0.8602884  -0.1243454  -0.5008547  -0.0526689  -0.0138614   0.3630654
  -1.2276937  -0.7663527   0.2725936   0.6153859  -0.0811319  -0.3892052
  -0.2009760   0.0678311   0.0961529  -1.6767125  -0.4041685   0.7135773
   1.0111928   0.7193520  -1.3674213  -0.3377078   0.3007710   0.0424849
   0.9704490  -1.8931900   1.3183810   0.1710031  -0.4080820  -2.2852046
  -0.0298322  -0.0587472  -0.0641508   0.8968641  -0.8580402   0.6944209
  -0.7936887  -0.2412995  -0.1229080  -0.4354715   0.0006682   0.0005191
   2.3815093  -0.8234459   1.2698536  -0.1330719   0.6255566  -0.8735649
   0.2752131   0.5018296   0.0912498   0.3216477   0.3819550  -0.4197048
   0.2317242  -0.0533546  -1.0979060   0.2639844   0.1195898  -0.1742433
   0.1421394   0.5694383   1.0387684   0.5240437  -0.1152369  -0.1568071
   0.0839726  -0.0298251  -0.5570046   0.6869569   0.6682438  -1.2064483
  -0.5720640   0.3576389   0.0427887  -0.1116017  -0.0395830  -0.3023118
  -0.0890072  -0.4050824   0.3607106   1.4665606   0.9369152  -0.3131733
  -0.3726848   0.0706379   0.1489886   0.2860552   0.7700093   0.2802178
  -2.1534076   0.9291488   0.8075278  -0.3610573  -0.0593329   0.0058820
   1.1213845  -1.0218107  -1.6750977   0.1747237  -0.3970539   0.3970572
   0.1009691  -0.1148374  -0.2493277   0.0579808  -1.4864577   0.9577491
  -0.8243730   0.1864509   0.1773546  -0.2464091   0.2793157  -0.4128425
  -0.6062413  -0.5308870  -1.6445293   0.7567506  -0.0222643  -0.2363990
   0.0338961  -0.0222224  -0.1159997  -0.5218328   0.5590810  -0.8204895
   0.5153658  -0.3824334  -0.6727648  -0.0806960  -0.0098703  -0.1993437
   0.5980538   0.2154135  -0.8854356  -0.3726833   0.2666877   0.0611234
  -0.0362111  -0.1267160   0.2332781   0.3195138   0.5809716   1.3283558
  -0.6433354  -1.1948005  -1.7904248   0.2267023  -0.3408438   0.1062911
  -0.9482177  -0.0957159   0.0859835  -0.5968552  -1.7153207   0.4399045
  -0.2380336   0.1986714  -0.1545332   0.3880360   0.2259359  -0.3087594
  -0.3079796   0.4730893   0.1770133   0.4383443  -0.0725279   0.1257469
  -0.6879899   0.5882768   0.1516969  -0.6913000  -0.3722459   0.7637153
  -0.1595025  -0.0711739  -0.0103981  -0.2042218  -0.0329818  -0.4705959
   0.4701591   0.0624104   1.1685163  -0.1620690   0.2700595  -0.0899046
  -0.0822807   0.2147646  -0.6932571  -0.1704038  -0.4642021   1.1130625
   0.2184315  -0.1382919   0.1709972   0.1240575   0.6609690   0.3886542
  -0.4412477   0.3359702   0.6662335  -0.0785923   0.2193378  -0.1759795
   0.2648190  -0.1431642  -1.1333745  -1.8026414  -0.2234655  -0.6647589
  -0.1387187   0.1647144  -0.0930250   0.0138308   0.5120378   0.2759688
   0.2398710  -0.5076762   0.4669026   0.0516515   0.2703066  -0.0665874
   0.8103250   0.7215056   1.8241737  -0.6201060   0.8072649  -1.8198948
  -0.2505851  -0.0401620  -0.1632640   0.3633893  -0.8923289   0.6928516
  -0.3500088   0.6605694   0.5732056   0.0465050   0.1733086   0.0835935
   1.1618757  -0.4543174  -0.3618244  -0.4910420  -0.5939649   0.4983455
  -0.1162213   0.0589536   0.3747890   1.4947135   0.1238501   1.4556700
   0.5409898  -0.3526588   0.4393130  -0.2652748  -0.2624465  -0.1586163
   0.4226813   0.7276042   1.0165191  -0.9113752   1.8259828  -0.2352250
  -0.0118914   0.0946763  -0.1329992   0.6741675   0.1489787   0.5557224
  -0.2839735   0.2822805  -0.7235785   0.1577571   0.3030411   0.0637390
  -1.5292183   0.2931743  -0.7159632  -1.0416994  -0.6874921   0.1461337
   0.0584230   0.1366210   0.1249946  -2.6914086   0.1441787  -0.8092448
  -0.0774397   1.2625149   0.0039912  -0.0215091  -0.0228296  -0.0242586
   0.2580308   1.0843067  -0.5288283   0.4326561  -0.3266491   2.0707405
   0.0617896   0.0286047   0.3502756  -0.2521476  -0.9714759  -0.7109452
   0.6115384   0.6797538  -0.8111129   0.1410853   0.0403618   0.2061870
  -0.5712136  -0.2604831   0.1960260  -0.0671495  -0.0637020  -0.6916670
   0.2594068   0.4521151  -0.2805148  -1.6177447   0.6033793  -0.5830485
   0.9519403  -2.6964719   1.1568356  -0.2844117   0.0695058  -0.0663483
  -1.0257806   0.5497212  -0.2208018   0.5600596  -1.1104729   0.7653540
  -0.2492125   0.2184078  -0.2656210   0.6420732   0.0908099   0.7698696
  -0.4779885   0.0855770   0.4166171  -0.2242894  -0.3090009  -0.0762474
  -0.1435357  -0.6604347  -0.3106258   0.4673027   0.7321693  -0.8389364
  -0.2467341  -0.3103832   0.3832476   0.4869884   0.2594707   2.3361993
   1.6896753   0.2359068   0.1707689   0.1586886   0.0543118   0.0286158
  -0.0110300   0.7784048  -0.6660851   0.2476121  -0.4633709   0.4148267
   0.2902864  -0.1786679  -0.2603804  -0.0710739   1.3126493   0.0647877
   0.4819623   1.5293474  -1.0364343  -0.0981293  -0.1611818  -0.0832902
   0.0093822   0.4431720  -0.1972409  -0.6983445  -0.7391153  -0.7758130
  -0.0767997   0.0609127  -0.2830721  -0.1771008  -1.1987908  -0.6193040
  -0.4647107  -0.6126798   1.1646351   0.0531484   0.0386412  -0.3519802
   2.2646735   0.4335462   1.2807331  -0.0044638   0.7734519  -0.3423419
   0.0321807   0.4704843  -0.3390975   0.8233978   0.9743379  -0.1945353
  -0.6699919  -1.1158296  -0.4087548   0.1022629  -0.1147107  -0.0221686
  -0.5266535   0.4645181  -0.5978498   0.3395126  -0.9409062   1.0069307
  -0.0684025  -0.2048098  -0.0048087   0.4930774   0.8999358  -0.7460905
   0.8840584   0.2308310   0.4545302   0.3179958   0.2366159   0.3471810
   0.0381019  -0.0033474   0.7877105   0.2921678   1.5755143   0.1829002
  -0.3332697  -0.1390220   0.0424184   0.9692706  -0.1148270   1.0937976
   1.3368413  -0.4380710   0.4620151   0.2631499  -0.1191496  -0.1984328
  -1.0554084   0.7520669   0.3871537   0.3535543   0.6344771  -0.1419109
  -0.0987171   0.0403720   0.0137253   0.3479135   0.7425610   1.4041535
  -0.5804115   0.5489576   0.2924396   0.2442890   0.0641135   0.3059223
  -1.1221287   0.0147330  -1.1241758   0.1001659  -0.0451881  -0.9755455
   0.1924950  -0.0501018   0.0840655  -0.5072958  -0.5809490  -0.5799874
  -0.5778400  -0.1541662   0.0893343   0.1527663   0.0192473  -0.2004556
  -0.1018151   0.0428608   0.3913476  -0.0175431  -0.8275877  -0.8128387
  -0.1671060   0.3253191   0.1661473   0.6380377  -0.9188399   0.2267981
  -0.5986764   1.5435411  -0.3693193  -0.0096006  -0.0501776   0.0497305
   0.4363329  -0.2878303   0.0270788  -0.0693102   0.7181379   1.3724811
   0.1673955  -0.0615056   0.5362889   0.3669315   1.0890404  -0.5925461
   0.7439497   0.9718865  -0.4104366  -0.0299702   0.2180642  -0.1769802
   0.3410609  -0.4409593   0.5601050  -0.3714002   0.9352874  -1.3864412
  -0.1868126  -0.0158216   0.1527729   0.8287535   0.4121235  -2.0389624
  -0.1652343  -0.0225971   0.7149765  -0.0612360   0.2010131  -0.2134844
   0.9194835   0.4749613   0.2184268   0.7038466   0.3977706  -1.1834561
   0.0327975  -0.1327062  -0.1281388  -0.0004001   1.1988473   1.0679554
  -0.3184810  -0.6292009  -0.1649699  -0.0549227  -0.0882598  -0.2963002
   0.5954626  -1.8691156  -0.8106925   0.1532937   0.0526824  -0.2840340
  -0.4263004   0.3922527   0.2031489   2.2027705  -0.9603751   0.5167106
  -0.2323842   0.0259574   0.3114122  -0.1519261   0.0463885   0.0950146
  -1.4033079   0.5692568  -0.3782403   0.3741518   0.2840601  -0.1359018
  -0.3546408  -0.0935558   0.1940406   0.0103896  -0.0403069  -0.7574819
   0.7901856   0.6329589   0.2801552  -0.3767543   0.3271922   0.1209818
  -0.5046586  -0.1176818   0.5634789  -0.7754986   0.1770953   0.9230242
   0.3642320  -0.3361006   0.2390176   0.0917341  -0.2704790   0.4014787
   0.6305718  -0.4768189  -0.5472364  -0.5423554  -0.0515734  -0.1336000
   0.9303471  -0.5685303  -0.9781908   0.3125809   0.3066653   0.1916707
  -0.0274059   0.0586720  -0.2611145  -0.3041002   0.7080419   0.7496497
  -0.4720864   0.3613602  -1.2289060  -0.0871272   0.2850445   0.0115263
   0.6800471  -0.2443321  -0.3991449  -0.4362290   0.3011190   0.0455120
  -0.0012780  -0.1358085  -0.1873325  -0.4067704   1.5052391  -1.0051173
  -0.0562839   0.4218068   1.3766086  -0.1490020   0.3938557  -0.3900277
  -0.2739653  -0.2346081  -1.6039096   1.1912295   0.0592819   0.4486309
   0.1846104   0.0647746   0.1938901   0.5607682  -0.0021600  -0.8123307
  -0.9956738  -1.0191392   0.7362437   0.3228660  -0.2566920   0.0501430
  -0.1610877   0.4532422   0.8771224   0.0792380  -1.0914574  -1.0048970
  -0.1239059  -0.1213781  -0.0515346  -0.3312653   0.9074395   0.3000780
  -0.8826573  -0.1919706  -1.2836885  -0.3098867  -0.2583432  -0.2457236
   0.8286327   0.1301217  -0.7360985   0.3699878   0.4362983   0.0094162
  -0.1425631   0.0111352  -0.1583581   0.3324855   0.4753635  -0.1122421
   0.7514440   1.4116485  -0.9837862   0.0405247   0.2341093  -0.2252637
   1.0097754   0.3106645   1.3718082   0.8354265   0.7723423  -1.0521851
  -0.3046867   0.0458715   0.2667143   0.9589888  -0.0201668  -1.3932847
  -1.6237311  -1.0865135  -0.3736589  -0.1301580  -0.0287165  -0.2597244
  -0.6765187   0.6059351  -0.5768297  -0.7744260  -1.2100433  -0.8175628
  -0.2935039   0.0096033  -0.1553377   0.0430989   0.2701393  -1.0716681
  -0.4327628  -0.0340384  -0.5364171  -0.3415325  -0.0307435  -0.2870393
   0.7811935  -0.0927715  -0.8000687  -0.0632733  -0.9534771  -0.3941769
   0.1281739   0.4422210  -0.0455572   0.1988391  -0.7417888   0.0836074
  -1.6719781  -0.7100230  -0.0892436   0.0306148   0.0129109  -0.1987636
   0.4641746   0.3369374   0.5245858   1.4576637   1.0004312  -1.0895631
  -0.1390895  -0.1052895  -0.0341024  -0.5672099  -0.5711047   1.4724123
   0.6596281   0.4874991  -0.3896621   0.2701549  -0.0602845  -0.1436470
  -0.0520712  -0.0119055   0.0450709  -0.0372210   0.1426096  -0.0724444
  -0.4053288   0.0796167  -0.0925151   1.5343077  -1.2434981  -1.7713345
  -0.7859976  -1.4406011   1.0768282  -0.0510092   0.3099623  -0.1569749
  -0.1570673   0.0409180   0.4013630  -0.4615488  -0.8891026   0.3180691
   0.0845169  -0.1883107   0.3670671  -2.7268989  -0.2137159  -0.3549221
   0.8160125  -0.9379042   1.2335731   0.1171407  -0.2395820   0.1353371
   0.1200020   0.4665403   0.3042515   0.6319677  -0.2459938  -1.5900439
  -0.3944771  -0.0160430   0.1734218   0.0371796   0.6946322  -1.1153535
  -0.5200788   0.8725096   0.8328919  -0.1760579   0.0104271  -0.0874189
  -0.0019140   0.5866377   0.5980524   0.2982931  -0.5950602  -0.9277986
  -0.4166839  -0.0139879  -0.0579818   0.0765293  -0.5934758   0.0133259
  -0.0579922   0.1251745   0.0726462   0.1624222   0.0710637   0.1236191
  -0.3638096  -0.2997581  -0.8400842  -0.2950928  -0.5219172  -0.3956294
  -0.0408695  -0.0819463  -0.1745706   0.9915397  -0.6216555   0.2148218
   0.4514351  -0.0719476   1.4201159   0.0017637  -0.0347846   0.0876784
   1.0323629   1.0721349   0.3295116   0.3739202  -0.7106494   0.4247116
  -0.2512679   0.1158868   0.1916989  -1.1948280   0.6443175  -1.1640596
   0.7531939   0.2061214  -0.2390823   0.5188439   0.1157222  -0.1180623
   0.0382946   0.0468973   1.0555342  -0.0871873   0.2757881  -0.1991425
  -0.1286906   0.1175211  -0.6453459   0.0483873   0.2939754  -0.8774382
  -0.1784706  -0.0936358   0.9684092   0.0360443   0.0160802  -0.1346420
  -0.7908554   0.4590256   0.1385592  -1.2129651   0.3616009  -0.0039447
   0.0403453  -0.0584384  -0.0503764   0.2296927   0.0183121   0.0160181
  -1.0852995   1.6105356  -0.7018538   0.2674548  -0.2925967  -0.0408371
  -0.4591426   1.1908181   1.0167518   0.2297493   0.6721286   0.2981026
  -0.0362288  -0.0406033   0.0259303   1.2725068  -1.1185895  -1.6347551
   0.4478722   0.0810984  -0.8568812  -0.1952797  -0.0485260  -0.1183120
   0.9278340   1.7740996  -0.7132715   0.9911210  -1.6820452   0.0903712
   0.1729153  -0.0248437  -0.1205878  -2.0796690  -0.7888534   1.9834603
   0.3376040   0.0013313  -0.5439049  -0.0635207  -0.0451765   0.1191138
   1.7893103   1.3102945  -0.7961567  -0.0144823  -0.0477767  -0.6859961
  -0.1707677  -0.0910196   0.2587084   0.2910458  -1.2562643   1.1313093
  -0.4803770   0.2231884   0.5968721   0.1278043   0.0235403   0.1679202
   0.8908287  -0.0787349   1.0072761   1.5956471  -0.6762202  -0.5246634
  -0.0040961   0.1453448   0.0885982  -0.8738074   0.1719901  -0.6856595
   0.0391569   0.1566022   0.9432079  -0.0965050   0.0494559   0.1087450
  -0.7737162  -0.7576503  -0.5700675   0.8260805   1.0085893  -0.8817156
   0.4244980  -0.1661136  -0.1532771   1.9885585   0.0404352  -0.0035492
   0.2284987  -0.6266313  -0.4996900   0.3884220   0.2338079   0.0158845
   1.1905508   0.0773649  -0.7834179  -0.8182707  -1.6010011   0.2793487
  -0.0226619   0.0676352  -0.3292022   0.3729510   0.1845514  -1.0231535
  -0.4089370  -1.0811135   0.5152350   0.0481831   0.0098487  -0.0132198
  -0.7266353  -0.6536739   1.2904965   0.6163136   0.5437159   0.1059477
   0.0475398   0.0210181  -0.1262075  -0.0943902   0.3921733   1.2106973
  -0.1603280   1.0054622  -0.7869896   0.1804488  -0.0478446   0.3310935
  -1.1713257  -0.7850950  -0.5959437   0.3019696   1.1510389   0.2972503
   0.0375569   0.1862301   0.3134412   0.1559867  -0.3976652   0.2237177
  -0.6114607  -1.1189870  -0.2983229  -0.0654411   0.2202547  -0.1173909
  -0.1097735   0.0689970   0.0559728  -0.5666766   0.6338238  -0.2096856
  -0.0692404  -0.0745011   0.0002159   0.0760606  -0.1118117   0.4161975
   1.4115852   1.0406244  -0.1524175  -0.3559784  -0.2068960  -0.1258367
   0.5488551   1.7108554   0.0965420  -0.1691838  -1.1363641  -0.0525100
   0.1646015  -0.0255503  -0.0200029  -0.5309253  -1.8385372  -0.2047731
   0.3988328  -0.7221722   0.5315106   0.2701838  -0.1328697  -0.1130795
   0.9571727   0.1442301   0.5434549  -0.3428760  -0.0887559  -0.4420985
   0.1795675  -0.1861170   0.0807938  -0.1812553   0.6746010  -0.1116353
   0.6965600  -0.2135072  -0.1038027   0.1574233   0.0987273  -0.1686157
   0.6479358   0.4815966  -1.3734770   1.2227410  -0.7226464  -0.0173225
   0.2857226  -0.3100299  -0.3954900   0.4239689   1.0078413  -1.1615956
  -0.9165245   0.8260427   0.9988328   0.0839106  -0.1183131  -0.0233571
   0.9462630   0.0421227   0.2298714   0.0415309  -1.0231867  -1.4108768
  -0.0978218  -0.0191353  -0.1300355  -0.3667633   0.7109036  -0.9130762
  -0.4585945   0.7489908  -0.5739738   0.2671083   0.2046987  -0.1592175
  -0.1674397  -0.9839485   0.3768440   0.1716977  -0.1308213   0.8335701
   0.1698029   0.0787175  -0.1574005   0.0544580   0.2596510   0.3497300
  -0.1771185   0.5816500   1.3014193   0.1091077   0.2208459  -0.3177451
   0.9216052  -0.2639218  -0.5001922   0.1048206  -0.1479249  -0.5060022
   0.0615376   0.1696577   0.0452806   0.6431831  -0.2036111  -1.3034509
   0.3448901  -0.8338076   0.2400721  -0.2048374  -0.1910508   0.0105382
   1.1562107  -0.3203307   0.2246292  -1.4720062  -0.3034975   0.4433715
   0.0279837   0.0453611  -0.1305889   0.0292664   1.6492580   0.4705434
   0.8031207   0.0880679   0.4098174   0.0273972   0.1279140   0.0756868
   2.0250261  -1.0294182  -0.2989860   1.1855096   0.1766092   0.8855051
  -0.4446592  -0.1601484  -0.0349113  -0.0194791  -0.6881331   0.7511388
   0.5532327   0.3832508  -0.4692243   0.1029893  -0.3651659  -0.0106875
  -1.0999966  -0.3727226   0.8312480   0.3134889   0.1215578   0.6991240
   0.0833192  -0.1156225  -0.1351351  -0.8123152   0.0791873  -1.6406007
   0.7530847   0.3219282   0.3874570  -0.2380734  -0.0045206   0.0800045
   0.1364976   0.4050995  -1.1045554   1.6280727  -0.1036711  -0.0798287
   0.1486463   0.0067146   0.2953691  -0.0673379  -0.5876755  -1.0269799
  -1.0459213  -0.2500773  -0.7387212  -0.4279230  -0.0550395  -0.0493797
  -1.4760724   0.9060182  -1.2173218  -0.7522365   0.4723374  -0.5072756
  -0.1441584   0.0921217  -0.0049299   0.0902197   2.0139818   0.4281994
  -0.3107170   0.4965209  -0.6144660   0.2568792   0.0833764  -0.1246747
   0.1489727   0.7789418   1.6683819  -1.5435385  -2.5596197  -0.6198773
  -0.2823290   0.1152430  -0.1521885   0.7529094  -1.5677437  -0.5433210
  -0.9130326  -0.4810346   1.0534508   0.0840754   0.1876326  -0.1716658
  -1.2168446   0.5783414   0.0495583  -0.0746095   0.3885762  -0.0810956
   0.0780256  -0.2134229  -0.1073122   0.7066386  -0.2238039  -0.1178913
  -0.2196876  -0.0075364   0.5178869  -0.0586094  -0.2163601   0.0056803
  -0.1570887  -0.8841681  -0.0260938  -0.7062762   0.3812632  -0.6747571
  -0.2987252   0.0030555   0.1046082  -0.6939368  -0.8735349   0.7525499
  -0.4494844   0.0988169   0.6282965  -0.2849230  -0.1348262  -0.0629428
   0.4425331  -0.2378569   0.8238558  -0.1378305  -0.5966972   1.4742517
   0.0989576   0.2053271  -0.2057658  -1.1792380   0.4037427  -0.0350690
   0.1606375   0.2473690   0.2059191  -0.2813578   0.1885164   0.2751574
  -1.5376738  -0.4392258  -0.4837071   0.9277207   0.8688534   0.5665031
   0.1073240   0.0965709   0.2934557  -0.4560231  -1.5129337  -0.5362147
   0.0038243  -0.0203212   0.8632777  -0.0321488   0.1310659  -0.1155471
  -0.6069722   1.2464082  -0.5929854  -0.1348532  -0.1219725   0.7472557
   0.1003020  -0.1568252  -0.0759455   0.5883740   0.1113454  -0.0908201
  -0.2057986  -0.2511048   0.8356644  -0.0308219   0.3604140  -0.2420193
  -0.3032890   0.1391070  -0.2125342   0.3879397  -0.6602086   1.0058484
  -0.1590539  -0.0839874  -0.0153333  -0.2266559   1.4066303   1.0580840
  -0.1594540  -0.4551638  -0.3645094  -0.0561221   0.2329881  -0.1338511
   1.8842671  -0.3839742   0.3516110   1.0316582  -0.0734947  -0.1606171
  -0.1356217   0.0784991  -0.0106132  -1.3656933   0.4023541  -0.5317419
  -0.1280072  -0.6808218  -0.2672591  -0.3512350  -0.0173775   0.0435125
   0.4668584  -1.1564564   0.2393428  -0.8563657  -1.1791567   1.7928636
   0.0756189   0.0450822  -0.2090762   0.5359296   0.1583486   1.1853446
   0.9628755   0.4693163   0.5957992   0.1417195   0.2222798   0.4549097
   0.1664433  -0.2328984  -1.0570900  -1.3944986   0.0409868   0.2509018
  -0.0291045  -0.0872594   0.0913040  -1.7775705   0.0893020  -1.2365308
  -0.1754164  -0.4227653   0.1669151   0.0567677  -0.2466276   0.3183856
   1.2613578   1.1068850  -0.0911194  -0.5591608   1.3525747   0.2565593
   0.2197036   0.0186733   0.1645543   0.0904793  -1.1560720  -1.0641366
   0.1696097  -0.2374786  -0.2540018  -0.0214207  -0.1421685  -0.1380486
   0.5784009  -0.5221990  -0.6409022  -0.2131892  -1.0003104   1.4215291
  -0.0104317   0.0671520   0.0708240   0.8237895   0.3770628   0.6113151
   0.1088321   1.2177660  -0.5253116   0.2301446   0.1589399   0.2356778
   0.7841304   1.1928618   0.1694800   0.9074143   0.2364818  -0.6142023
   0.0864058  -0.3609236   0.2307149  -0.4704921   1.1825856   1.0717627
  -0.3761573  -0.1458558   1.6371105  -0.0503452  -0.2135697   0.0468385
   0.4758531  -0.6214675  -0.2247879   0.3708462  -0.8193363   1.9126956
  -0.0061840  -0.4207294   0.3078923   0.0528899  -1.3068798   0.5809348
   1.6160024  -0.1709283  -1.1645817   0.0013211   0.2247369   0.1566110
  -0.1816637   0.3095529   0.1601103   0.9414901  -1.0851418   2.0716639
   0.1759380   0.0097839   0.1176668   0.2828146  -0.9635577   0.7246778
  -0.3386506  -0.3843287   1.4135096   0.1186582   0.2422270   0.2682140
   0.1805871  -0.3814819  -1.2032613  -0.1867988   1.1517917   1.1731107
   0.0509456  -0.0356385  -0.1179398  -0.0154944   0.2552783  -0.0857873
   0.3707219   0.4665155  -0.1213448   0.0115846   0.2305201   0.0751125
   0.0494786  -0.3307896   0.8175929   0.4666884  -0.6554507  -1.3530085
   0.0785572  -0.3034637   0.2506669  -0.3947089  -1.0751040   0.0754680
   1.0525254  -0.7094635  -0.6136085   0.1080628  -0.1469952   0.1106264
  -1.2309576   0.5130916   0.6320214  -1.1479564   0.2816706   1.0272164
   0.1416110  -0.2158907  -0.0324808   0.4505746  -1.2114736   0.2312676
   0.6124282  -0.7775946   0.9207586  -0.0296303   0.0143999  -0.2499069
  -0.2668668   0.6494561  -0.9790875   1.2352792  -0.8637925  -0.5876963
   0.0624419   0.2816614   0.0863869  -0.3248457   0.2500876   2.0574112
  -0.3151572  -0.4373363   0.9998856   0.0941543  -0.0789859   0.0908527
  -0.3931134   1.4211723  -1.0964017   0.3744019   1.0230670  -0.6375657
   0.2763419  -0.1532807  -0.0298195   0.5077627   0.6157020   0.0298298
  -0.1533921  -0.4701547   1.1101735   0.0585986   0.0235652   0.2172753
   0.0535556  -0.0377351   0.2742332   0.0274682   0.1317604  -0.2379008
   0.1298774  -0.0330340   0.0055857   1.1311557  -0.0032439   1.1659802
   0.0353550   0.7443434   1.1757907  -0.0538462   0.0880948  -0.0467309
   1.1293381   0.9427674  -0.6802114  -0.9312519  -0.4209746  -0.0746931
  -0.0290114   0.1214205  -0.1223377   0.4542038   0.1359965  -0.8587933
   0.0560880   0.3294391  -1.9659451  -0.1933882  -0.0074829  -0.1003753
  -0.2878348   0.9167089   0.5184405   0.8791729   0.4152678   1.7024308
  -0.1623187  -0.3057064  -0.0577876   1.5356375   1.3520377  -0.5222516
  -0.0396364   0.9535826  -0.1533590   0.5084587   0.0112449  -0.1185525
   0.2703687  -1.2520057  -0.1581463   1.0733835  -0.2290907   0.6628971
  -0.0506958  -0.0167604  -0.2294660   0.0332524  -1.4676206  -1.7833154
  -1.2509898  -0.9791280   1.2849246   0.1542193   0.2045649   0.0606341
   0.0265111  -1.1156681  -0.2697032  -0.5526243  -0.1536753  -0.3442589
  -0.1017741  -0.0003870  -0.2279547   1.0098211  -0.3572145  -0.5706202
  -1.6556637  -0.3542385  -0.1262863   0.1478041   0.0813383   0.1782637
   0.6395969  -0.3787098  -0.5234501  -0.4890741  -0.9930775   0.2159075
   0.1579291  -0.1766813   0.0606562   0.1216100  -0.5990455   0.6099938
  -0.5115940  -0.8454822   0.0580452  -0.0457850  -0.1351054   0.0930179
  -0.3218770   0.9796805   0.6689143  -1.0229503   1.8740251  -1.1073872
  -0.0075920   0.1081107   0.2127581   0.5808365  -1.2298565  -1.1335254
  -0.0850675   0.4341504  -1.1961544  -0.0327705   0.2253055   0.1335448
  -1.2972488  -0.3245186   0.0591480  -0.9746592   1.3636947  -0.2560320
  -0.2766316  -0.3195832  -0.1517346   0.6290327  -1.0110329   0.8134341
   0.2514231   1.6076218   1.2721800  -0.2587067  -0.0898877  -0.0900755
  -0.4488017  -1.4812527  -0.0067389  -0.4180831   0.3725513   0.5857336
  -0.1370851   0.0435890  -0.1890247  -0.9295245  -0.4027509  -0.9308791
   0.0990767   0.1133225   0.9702586  -0.2072505   0.1474981   0.0219196
   0.8070418   1.3736036  -0.4386197   0.0356734  -0.3195583   0.7364509
   0.0375872   0.0346886  -0.0654225  -0.2137746   1.4046118  -0.1912803
   0.0635674   1.2764572  -0.0761452  -0.0037440   0.0043590   0.3069550
   0.0270271  -0.7044175  -0.9689741   0.1115948   0.6454064  -0.6549585
   0.0095343  -0.1021999  -0.0085281   0.2486450   0.9707031  -0.7872849
   0.3178821  -0.1235379  -0.5660744   0.0636161  -0.1368990   0.0495632
   0.1300254  -1.2592857   1.6509802   0.7896445  -0.7558084  -0.1125472
  -0.0174776  -0.1039761   0.1724481   0.0121820  -0.4534995  -0.0556384
   0.3727067  -1.5322680   0.1719660  -0.3224809   0.0083839  -0.2112280
   0.1835501   1.4464177  -0.0247159   0.2596996  -0.7336485  -0.7035907
  -0.0111816   0.0391620   0.0424989   0.3819835   0.1337615  -0.2973479
   0.8169755   0.2883134   0.3989624  -0.0064316  -0.0788136  -0.1095413
  -0.3119678  -0.3972039  -2.6518106  -0.1568715   0.7054126  -0.7073991
  -0.3378806  -0.0917629  -0.1101307  -0.6366652   0.0273705   0.8624114
  -0.5414510  -1.1957793  -1.1224475  -0.3808928  -0.0779130  -0.2544801
   0.6094644   1.3499950  -1.1017154   0.6140270  -1.2653441   0.6524906
  -0.0283406   0.1687003   0.3601810  -1.3059115  -0.4678753   0.7593974
  -1.3821793   0.2141232  -0.1445590   0.0143421   0.5104051   0.0698709
  -0.3100978   0.6876470  -0.0816970   0.1263507  -0.4746069  -0.7161832
   0.0426207   0.0729596   0.1040006   1.2674067   0.1248130  -1.3321495
  -0.1941769  -0.3524179   1.9836236  -0.0356693   0.2421378   0.2481611
   0.6803194  -0.5974678   1.1465737   0.3169585  -1.2001696  -0.4417913
  -0.1496897  -0.0676114   0.0060325  -0.1491719  -0.4706496  -0.2988523
  -0.4741158  -0.1011879   0.9100148   0.0731615   0.2876631  -0.0325776
  -2.4539275   0.5150170  -1.5764213   0.1510425   0.0230050  -0.3109664
  -0.0956169  -0.2824688  -0.1113535   1.9266448  -0.7454740   0.9961445
   0.3967959  -0.5125577  -0.6134070  -0.1279215  -0.0426624  -0.2055637
  -0.3107432   0.4817014  -0.4523578   1.5824094  -0.6621280   0.1814518
   0.0186600   0.0989521  -0.1987337  -0.4258419   0.2294663  -0.1931708
  -1.1604472   0.4009908  -0.1479779  -0.0507012   0.0325290  -0.0423097
   0.2375907  -0.1215723   0.2031646  -0.6801444  -1.1312383   1.8139795
   0.0787356   0.1123735   0.1466301  -0.0958126  -0.4554686   0.3647025
  -0.9927924   0.3559714  -0.5346444  -0.1235777  -0.0548745  -0.0751000
   0.8393309  -0.2174269  -1.6291020  -0.3675378   0.6867002   2.3012807
   0.3152052  -0.1098143  -0.0861694  -1.5800973   0.2833621  -0.6029273
  -0.7727825  -0.1847752  -0.2830328  -0.3133118  -0.0546201  -0.1178424
  -0.1771157   0.3022027   0.0474526   0.4721236   1.3059626  -1.6617720
   0.0020860   0.1442168  -0.2381971   0.3448581  -1.3398600   0.0444658
  -0.3713606  -0.8429171  -0.1528414   0.2045960   0.1504389   0.1548133
   0.4090591   0.0604600  -1.3442614  -0.3822862   0.5156202   0.1843226
  -0.0685580  -0.1588028   0.2519662  -0.6044631   0.9531040  -0.4198391
   0.4040005   0.7932204   1.7935951  -0.0385303  -0.0559569   0.0745286
   0.7652688   0.7093338  -0.1677303   0.4057203   1.2489001   0.8098217
   0.2265798   0.1032281  -0.0543540   0.8457478  -0.2385716  -0.1679595
  -0.5856119   0.9234712  -0.3360369   0.0072506  -0.2654608  -0.1899270
  -0.9194696  -1.2522477  -0.5828753   0.5423889  -0.1200119   0.7960855
  -0.1650420  -0.2636474  -0.5090662   0.4107938   1.1633022   0.0602550
  -1.3910058  -0.2175246   0.2784373  -0.0883282   0.2903101   0.1762863
   1.7513011   0.7899496   0.6705047   0.4194065   0.2512621   0.1760105
   0.2605844   0.1270066   0.3364246  -0.0756323   0.2259878  -0.8055331
   0.6705977  -0.8721030   2.0659657   0.2484956  -0.0534071  -0.0235107
   0.9185972  -0.7854697  -0.4273441  -0.8459812  -1.1253884  -0.0337091
   0.1305989   0.0467751  -0.4022283   0.0467332  -0.6304796  -0.7016936
  -0.5926880   2.2343199   1.1181210  -0.0268229  -0.2300161  -0.0896845
  -1.4871682  -0.7441829  -0.4729384   0.8416557   0.6215666   0.2757627
   0.0671043  -0.4916984   0.1518586  -1.0495622  -0.1276929   0.3391724
   0.4478778   0.2956681  -0.0814116   0.2371195   0.2788618  -0.0051809
  -0.6855181  -0.5499550  -1.3550309  -0.7300432   0.3687402  -0.4053348
   0.1654520   0.0334083   0.1454867   0.0302283   0.9359786   0.3208941
   1.1360056   0.8556611   0.5706742  -0.0117455  -0.1675888  -0.2927000
   0.0161512  -0.1445843   0.1244969  -0.7501726   0.4574431   0.4556919
   0.1629627   0.1084765  -0.0327823   1.1065085   0.5493384  -1.5037204
   0.7890145   2.2374368   1.5891298   0.0180273  -0.0865326   0.1488082
   0.5350788   0.1782996   1.0120971   0.9128046   0.8586394   0.7688140
  -0.1561117  -0.0188896  -0.1225967   0.0022269   0.5185494  -0.0576395
  -0.6938613   1.1332574   0.1856832  -0.1054082  -0.0553652  -0.0790367
  -0.8163981   1.6527865  -1.2564870   1.0299045  -0.6467691   0.8182269
   0.3266486   0.1582924  -0.0870846  -0.6873894   0.0825651   1.2239293
   0.4837780   0.5777328   0.1852699   0.2055213  -0.0865184  -0.0925712
  -0.1472487  -0.6157020   0.4171506  -0.6843339  -0.6340823   0.0871590
   0.0139070   0.3345826   0.0255146  -0.5830055   0.2286595  -0.2208685
  -0.3207106  -1.5769217   0.2793574   0.1056340   0.1698416  -0.1139984
   0.4011792  -0.0961012  -0.1514234   0.1025880   0.4689863  -0.0566937
   0.1338010   0.2005085   0.0789584  -0.2272255   0.4536679  -0.2276974
   0.8261896  -0.4246282  -0.2128524  -0.0109605  -0.0678240  -0.0947377
   0.1066378  -0.1345534  -0.9300718   0.5834875   0.3248697  -0.7496911
  -0.4474615   0.1283361   0.3365034   1.1997894   1.1711005   0.2169216
   0.4561953   1.0706472   0.4690800   0.1938489   0.1028129  -0.0062669
  -0.2330255   0.5339242  -0.9235900  -1.0249600  -1.5409367  -0.3772102
  -0.2329129  -0.0050220   0.1178636   0.6612690  -2.4340415  -0.4156066
  -0.5822512  -0.1341781  -0.0390869  -0.1572782   0.1232339  -0.0205488
   0.3791296  -0.9327708  -1.0834684   0.4247478  -0.1998383   0.3273569
  -0.0749550  -0.2970985  -0.0468771   0.7779399  -1.2311574  -0.2220508
  -0.3483355   0.1313817  -0.8587401   0.1198300   0.0881850   0.1077353
   1.1589617  -1.2301800   1.1905974   0.6011192  -0.2937860   0.6527130
   0.1139616   0.0850869  -0.0249048  -0.7688659   0.7234412  -0.8312156
   0.0733668   0.2888648  -0.8575904   0.1028800  -0.1427588   0.0218466
  -1.5797622  -0.6295038  -0.4950061   0.4719670  -0.0579622   1.2093773
   0.1503033   0.4299578  -0.0338375   1.4022425  -1.3987573  -1.5135008
  -0.6074002   0.1996330   0.2832199  -0.0087169   0.0523309  -0.1032614
  -0.5781067  -0.0371305  -0.0844341  -0.8794550  -0.2704544   0.5613037
  -0.1384683   0.0260196   0.1281424  -0.2366015   0.2614115   0.0433569
  -0.6863281   0.7034541   0.1455798  -0.0779648   0.0030951   0.1811214
  -0.2520787  -1.1758357   0.1337450  -0.4154615  -0.4995195   0.1069109
   0.0630149  -0.0279795   0.3516223  -0.1111464   0.8676065   1.2633288
   0.7955245  -0.7949059   0.5803433   0.1650827  -0.1531946  -0.1250167
  -0.6741684   0.6794481  -0.0002603   1.2890909   0.4990979  -0.6932462
   0.2653337   0.2060757   0.2563455   0.3138890   0.8155805   0.9008549
  -0.6630124   0.3173817   0.2656592  -0.0624259   0.1057082  -0.1090131
   0.5215124   0.8436673   1.5053582  -1.4028482   1.6119285  -1.0161338
  -0.0186218   0.0639981   0.2074337  -1.0368627  -0.5332167  -0.0996065
   0.7803312  -0.3106188   0.1421368   0.0700857   0.0222585  -0.1222503
   0.6460081  -0.1543979   0.0936873   1.3443576   0.3380571   1.3947730
   0.1229723   0.1859852  -0.3440380  -1.2210846   1.2199535   0.7449507
  -0.0775938  -0.6878260   0.9928694   0.2749658  -0.0220953   0.0520563
  -0.8707381  -0.8397430   1.3410289   0.8905135  -0.7311615  -0.5360038
  -0.0269899   0.0704839   0.1018126   1.2523160  -0.9087217  -0.1109035
  -1.1046909   1.2468466   0.1085305  -0.0586819   0.0959010  -0.1395091
   0.1047889   0.6533539  -0.1084785   0.1659942  -1.5325464  -0.5246987
   0.2545138  -0.1698132   0.1291233  -0.3223260  -0.4588977   1.4965994
  -0.1635427  -0.6284261  -0.2034729   0.2056562  -0.0221814  -0.0131593
   0.7665311  -0.9636265   0.2017405   0.7958612  -0.5593858   0.6854719
   0.0149236  -0.1428843  -0.0785627   0.5677145   0.3934740   0.1231470
  -0.5121590   0.8171301  -1.3108389  -0.0015728  -0.2722222  -0.0093081
   0.0076581   0.3105958  -0.2729630  -1.4916373   0.1975409  -0.4356216
  -0.2102026   0.1664531  -0.1733977   0.7491474  -0.6192722   0.2934113
   1.5638342  -0.4220285   0.3268989   0.0358683   0.0553735   0.1098002
   0.5451247  -0.2023427  -2.1369293  -1.3720759   1.2644451   0.2925853
  -0.2245274   0.1184346   0.0966652  -2.2008183  -0.9069402   0.6576433
   0.0397272  -0.8646933   1.2286068   0.3173423   0.0704617  -0.0484275
  -0.2697389  -0.5777725   1.2741437   0.2754365   0.9982744  -0.0227638
  -0.1554139  -0.2543752   0.1849744  -1.0219140  -0.0325282  -0.3105237
  -0.2830842  -0.4381142  -0.2677690  -0.0842343  -0.3086115   0.0734752
   0.0549172   0.8209468  -0.3774621   0.2313130   0.9529498   0.2521324
   0.0353814   0.1207309   0.2898399   0.8502712  -0.9043373   1.2584018
   0.1021412   0.9303061   0.8207172   0.2797395   0.2812862  -0.0339379
  -0.5267597  -0.4477157  -0.2581640   0.8057635  -0.0564917  -1.4301043
   0.0668669   0.0675404  -0.1234875   0.7280315   1.3412162  -0.5324845
  -0.4119929   0.2541887  -0.0034633  -0.0110040  -0.1328016  -0.0692529
  -0.9631863  -0.6702861  -0.3757808  -1.0720159   1.4899051   2.0333469
   0.1017215   0.0028463   0.1958974   0.5780156   0.7548914  -0.9447298
  -0.0880425  -0.5855955   0.4684721  -0.0648438  -0.0774757  -0.2982179
   0.6755379   1.1679778   0.2108577  -0.3100246   0.6430518  -0.3046250
   0.3891231  -0.1527595  -0.0299363  -0.2345583   1.0663952  -1.0509118
  -0.0477039   0.0812262   0.0955692  -0.2077872  -0.1642144  -0.1255929
  -0.3483365   1.3992745  -0.4868916  -0.1896242   0.5790431   0.8667645
  -0.0619115  -0.0413692   0.1929662  -0.8595055   0.7514229  -0.9941123
  -0.4065512  -0.5179999   1.2640874  -0.0554101  -0.0448467  -0.1149457
   0.6689857  -0.3556907   0.6506150  -1.7419109   0.1289359  -0.0113306
   0.1635782  -0.2371090  -0.1064565  -0.2533793   0.4192141   0.0711702
   1.7096233   0.5724319  -0.0577011  -0.2597091   0.2098139   0.0650957
   1.7357228  -0.2063056  -0.4461603  -1.2638267  -0.5785577   0.2249339
  -0.0151307  -0.2422236  -0.0720232   0.0989100   0.2656976  -0.2510265
  -0.3737600  -0.4267699   0.9477217  -0.2405405   0.1009095  -0.3591065
  -1.2458442  -1.4051139   0.0566020  -0.4535013  -1.1583802  -1.0888553
   0.1526333   0.1131636   0.0174532   0.2588549   0.8354843   0.5164813
   0.6721789  -0.0538936  -0.6876996   0.0376596   0.1175388   0.0635785
  -0.9076249  -0.7736955   1.1116287   2.1030385   0.1584783  -1.3178886
   0.3160112   0.0070894  -0.3740926  -0.6592233  -0.9389876   0.8474705
  -1.2805724   0.1131122  -1.1482544   0.1980728   0.1473580   0.0110167
   0.3556364   0.1969150  -0.8697925   0.1187005   0.3807112  -0.1716860
   0.2242462   0.2939487   0.0575472   1.8645509   0.0986317  -1.7821970
  -1.6607704   0.4310592  -0.7378948  -0.0835980  -0.1274267   0.4654424
   0.3592552  -0.0589300   0.4367481   1.3288975   0.9653561  -0.1168239
   0.1000122  -0.1698646  -0.0520176   1.2395175  -0.6568696  -0.8177951
   0.2743936  -0.3402157  -0.6897803   0.1275695   0.0416933  -0.0636769
  -0.1055358   1.7320337  -1.1730026   0.4862150  -0.6332614  -0.6200944
   0.0466851  -0.3290091  -0.2080077  -0.4447572   0.5911082   1.3800385
   1.2057431   0.0361979   0.4872998   0.2059689   0.0849454   0.2009510
  -1.0067375   1.0539347   0.9618393   0.2034869  -0.0882748  -0.9918693
   0.4221559   0.1154865   0.1042757  -0.5181906   1.5610751   1.3751427
   0.3680601  -1.5399836  -0.0306612  -0.0106192  -0.2868518   0.0830522
  -0.2828367  -1.2408588   0.0651283  -0.4725649  -0.9285488   0.8734648
  -0.4234264   0.0234612   0.1370612  -1.2788413  -1.0596750  -0.0273745
  -0.1486172   0.0257204  -0.3431196  -0.3717021   0.3701190   0.0579610
   0.7755069   0.3095561   1.0340669  -0.2994581   0.4089613   1.4004111
  -0.2298744  -0.0224405  -0.1617008   0.7343866   2.3451130  -0.7563949
  -0.1754849  -1.0853808   1.2980144  -0.1454941   0.0969975   0.0371487
  -0.5423456   0.7987574   0.8762215  -0.2955147  -0.1633118  -0.4740647
  -0.0875259  -0.0287055  -0.1378608  -0.2860609  -1.3422509   0.8040275
   0.3249613  -0.0718269   0.8621896  -0.0061271   0.2473916  -0.0247140
  -0.3963353   0.1349583   1.1917615   0.4703345   0.8802688   0.1161361
   0.0061369  -0.0768583   0.0087930  -0.0948347  -0.0044611   1.4181743
  -1.6724701  -0.9226791   0.5713716  -0.0328226  -0.1191007  -0.2014484
  -0.6357716  -0.6844453   0.8958498   0.2297123  -0.4478457   0.5164182
  -0.2845834   0.0484692   0.1909339   0.8601741  -0.5476215   1.0258584
  -0.5312229  -0.6712885  -1.0078297   0.0941397  -0.0208738  -0.0114912
   0.7408822  -0.1070750   0.5094308   0.8800622   0.6004151  -0.3430885
   0.5059561  -0.0164844  -0.0840819   0.2752029  -0.9476849   0.8585501
  -0.2110862   0.7481300  -0.1694602  -0.1901662  -0.0253662  -0.1104570
  -0.3541713   1.4978325  -0.8703285  -0.8370953  -0.0085646  -0.1743757
  -0.1758247  -0.1620733  -0.0744815   0.7696823  -1.1037465  -1.1503987
   0.5020223  -0.8232647  -0.3286366   0.0985528   0.0480452   0.0078234
  -0.7400450  -0.0059470  -0.2410193   0.2073210  -1.6164730   0.0505582
  -0.2190060  -0.1780921  -0.2228364   0.3755529  -0.9605811   0.0749419
  -0.6732934   0.6247979  -0.4288159  -0.0202770   0.1484282   0.0237155
   0.2873267  -1.3452441  -0.0868527  -0.2390066   0.6066802   0.7466205
  -0.1171289   0.2344428  -0.0173246   0.0982628   0.9657786   0.5735312
   0.1700889   0.3832483  -0.2824030  -0.0619642   0.3203564   0.0729735
   0.4584485  -1.1065861  -1.1003280   0.9047801   0.0464331   1.3964370
   0.0856528  -0.1610964  -0.0036636  -0.3373333  -0.0889280   0.0145755
   0.2415791   0.7827641  -1.6871380   0.0720550  -0.2816707  -0.0143870
  -0.2487622   0.9767215   0.8993310   0.0848068   0.3042484  -0.7475522
  -0.3463186  -0.1084906   0.0911745  -0.7021132   0.3992165  -1.1807479
   0.3496380   0.8849724  -1.2884254  -0.0779412  -0.1455712  -0.2006421
  -1.4424220  -0.7534749   0.2477801   0.8624081  -0.1419358  -0.6138760
  -0.0171415  -0.1244582   0.0843922   0.2427036  -0.4137304  -0.4718516
   0.2536170  -0.0880118   0.2653668   0.1447340   0.3225219   0.5158792
  -0.8612917  -0.0636900  -0.5722832   0.0772808  -0.0237007   0.2000132
  -0.1868814   0.2163799  -0.0994975  -0.4433007  -0.2069388   1.1578840
  -0.4931860  -0.5982502   1.5834720   0.0859456  -0.1114872   0.0293773
   0.0130915  -0.0084034  -0.9120951  -0.3879062  -1.6588323  -0.1769028
   0.1324716   0.1646034   0.1665785  -0.6986148  -0.6100567  -2.0842557
   1.3099037   0.3619756   0.4767949   0.0564710   0.1365041   0.0142820
  -0.4829942  -0.9777583  -0.6349649  -0.2688166  -1.3960519   1.0950062
  -0.0636198   0.0880961   0.2407579   0.7784882  -0.5200585   0.4323854
  -0.0084749   0.7645429   1.0751417  -0.0394762   0.1077354   0.1643444
   0.1164842  -0.0179781   0.8456353   0.1664980  -0.3901605  -1.4406770
  -0.2665291   0.0367384   0.1119984   0.8284963  -0.5524578  -0.1359561
   0.1724212   0.7404182   1.5585737  -0.3941997  -0.0499537  -0.0220571
  -1.1903925  -0.7967677  -0.5218371   0.6830908   0.6550213  -0.3385650
   0.1729771  -0.0086364  -0.0722418   0.8877565  -0.5077150   0.5489588
  -1.4532479   0.5273148   1.7989521   0.0518215  -0.5137347   0.0452076
  -0.3224527   0.1137041   0.5468695   0.3450345   0.3418013   0.5331662
   0.1220763   0.0946123   0.0382730  -0.0281007  -0.3397591   1.0568689
  -0.4140417   0.6801193  -0.6019113   0.2331176  -0.1896187   0.1968944
  -1.3452469   0.0386354  -0.3484869  -0.1134521  -0.2168935   2.4143481
  -0.0659353  -0.2467210   0.1878026   1.5156034   0.3415682   0.0898046
   0.7148946  -0.8826366   0.8122566  -0.2482424   0.2478845  -0.2088796
  -0.1901092  -0.9815148   0.7502072   0.6459697  -0.1470783  -0.0466402
   0.0189704  -0.2728424  -0.2107031  -0.3306825  -0.8267661   0.2709723
  -0.1621230   0.3041243   0.3470618   0.0800856  -0.2288189  -0.2466099
  -0.1981767  -0.5544180   1.1874804  -1.0797408   1.1135995  -0.9263871
  -0.1290235   0.0309682  -0.2501302   0.2781950  -0.8071429   0.2418086
  -0.1840817  -0.5112590  -0.0787980  -0.1230540  -0.0306702  -0.1257116
  -0.1682765   0.5699300  -0.6429182  -0.2082809  -0.5187699   0.4626537
  -0.0822669   0.0473995  -0.0324528   1.3034942  -0.3914231   0.2328493
   0.6929951   0.2436613   0.3432846  -0.2603744   0.1576899  -0.2019448
   0.0794665   0.1310285  -0.8972404   1.6041381   0.4730348  -0.3268468
   0.0578340   0.2131407  -0.0860105  -0.4465509  -1.2518263   0.1229469
   1.1599112   1.7021072  -0.3312640   0.0170738   0.0633521   0.1127416
  -1.4442116   0.5224194  -0.9934638  -0.3226013  -0.0514472   0.2267054
  -0.2294099  -0.0418955  -0.5125552   0.9896414   0.5038581  -1.2309623
  -1.0632353  -0.5365917  -0.8507758  -0.1495383  -0.0857040  -0.0256197
   0.6294025  -0.8075994  -0.3128591  -0.2115579   0.4694640   0.2190206
   0.0518264  -0.1341816   0.1997970   0.9560680  -0.4756201   0.2857259
   0.7926134  -1.3785043   0.1222717   0.1816367   0.2863115   0.1667348
  -0.3194922   0.4457053  -1.0641053   0.4637467   0.0292752  -0.1578727
   0.0784246  -0.1896548  -0.2634443  -0.3240154  -0.4156761   0.3274520
  -0.3884628  -0.2874683  -2.0529230   0.3125627   0.1095804  -0.3509694
  -0.4639846   2.0169923  -1.1278881  -1.3073590  -1.2103083   0.3132842
   0.2430007  -0.1172669  -0.2055162  -0.5120718  -0.9884253  -0.9044905
  -0.3713782   2.2483284   0.8206310  -0.0988815  -0.1236717   0.0495059
   0.0538335   0.2859422  -0.5438221   0.1064201  -0.0932765  -0.9596822
   0.2339162   0.0855403   0.3696293  -1.8684534   2.0362802   0.2297082
   1.3022280   0.1901360   0.2531271  -0.0887621   0.1814722  -0.1243356
   0.7061827  -1.0192925  -0.1073048  -0.7606388  -0.9020168  -0.7994105
   0.1532414  -0.1773685  -0.0852920  -0.6061488   0.6668777  -0.4673079
  -0.1408216   0.7096005  -0.5757999  -0.0941930   0.6344255   0.0075186
   1.7890459   1.1886369   1.3645192   0.2816165   1.3228362   0.9516302
  -0.0844601  -0.0675129  -0.0199454   2.1826413   0.1784597   0.8613644
  -1.4428886   0.8121566  -0.2196201  -0.0984341   0.0050329   0.2095693
  -0.7429281   0.8995517   0.5072747   0.9495258  -0.0220244   1.2318934
   0.1050726   0.2320929  -0.1000662   1.2775693   0.3338532   0.8775882
   0.5233789   1.0272492   0.1156193   0.0429918  -0.2730152   0.1481136
   0.7311083  -1.0875063   0.1188849   0.4758221   1.1479356   0.3794782
  -0.1073152  -0.2308634  -0.0270159  -0.1920421   0.9661534  -0.6963991
   0.8478489  -0.6069642   0.6592199  -0.2723173  -0.0597259   0.1688147
  -0.0530557  -0.8872818  -1.0900538   0.0160827   0.7479759   1.0698789
  -0.1315710  -0.2601417  -0.1495903   0.6128913  -2.4508498   0.6658385
  -0.1972520   0.3920810   0.2051587   0.3404793  -0.0013699  -0.1308074
   0.1535075  -0.0102181  -1.3743192  -0.7977629  -0.9772274   0.4340234
   0.1050684  -0.1262888   0.3057411   0.4565562  -0.4013799  -0.2378794
   1.7751428  -0.1988676   0.7627323  -0.0180664  -0.1072332   0.1732890
   0.2064604   1.1869307  -0.5738908   1.0059204  -1.6875311  -1.2549691
  -0.3722788   0.1703609   0.0417040   0.3604971  -1.2656044   0.1432707
   0.2114950  -0.3471653  -0.5073475   0.2310509  -0.0928891   0.0560443
   0.5794092  -0.4014430   0.1577149  -0.3761342   0.6502884  -1.4895129
  -0.1230401  -0.3533730  -0.1596791  -0.0237579  -1.0642430  -0.0660380
  -0.0168049  -0.0245276   0.0172692  -0.1442107  -0.1824094  -0.0444793
  -0.4083235  -0.3036610  -0.6183907   0.8349611   0.1301926   0.0056493
   0.0113176   0.0608870  -0.1062066   0.7624918  -1.8110752  -0.7500134
  -2.4044626   0.4350047  -0.0982403   0.0908958  -0.0029713  -0.1273119
  -0.2331374   0.1726822   0.5590261  -1.1005882  -1.1912804   0.1228899
   0.0694951   0.2207380  -0.0160493  -1.2397333   0.7042804  -0.5538602
   1.0851039  -0.2986592  -1.3421283  -0.1930213  -0.0256698  -0.1118855
   0.3881560   0.6937240  -0.5916507  -0.4240098   0.1114884   0.0260049
   0.0622724   0.0292058   0.1407151  -1.1129210   0.4329771  -0.6176201
   0.8475296   0.6635909   0.5791782  -0.2329936  -0.1456277  -0.0665997
  -0.1610897   1.5064505  -1.1313330  -0.3495029  -0.2975151  -0.1674200
   0.0022422  -0.4111056  -0.0771236   1.8120714   0.4961529   0.8837952
  -0.2023131   1.0497360   0.1395371  -0.1720748  -0.4384068   0.2294380
  -0.4684573  -1.1668372   0.4028079  -0.7629583   1.1371424  -0.8073928
  -0.4971707  -0.3542138   0.0133691  -0.4603074  -0.4939074  -1.4614174
   1.1954335  -0.0154043  -1.5791949   0.0192170   0.0903594  -0.2210784
  -0.9529073   0.7600666  -0.9631510  -0.1919459  -0.3443827  -0.0155780
   0.0312158   0.2359940   0.0153532   0.1120919   0.5631943  -0.8150157
   1.5107528   0.8338014   0.2252169  -0.0850081  -0.4253019  -0.2909588
  -0.0458209  -0.1731254   0.0240572  -0.1338979  -0.2949946   0.0192556
   0.1642202  -0.0236701  -0.4807658  -0.9904497  -0.2836742   0.3226403
   1.7574486  -0.6885794  -0.6198848   0.0703295   0.1466864   0.0493952
  -0.5128471   0.0192389  -0.7927583  -0.0025268   0.7093977   0.4437093
   0.1136859   0.1598274  -0.0667420  -0.4729570   0.2262998   0.4534295
   1.2488269  -0.3735819   1.7267175   0.0857893   0.1343214   0.3048964
   0.2467145   0.6530588  -0.1671343  -0.4087833  -0.1948658   0.7133930
   0.0464521  -0.0071272   0.1745888   0.0719199   0.2467035   1.2663611
  -0.4893552   0.6778868   0.3751781  -0.1095908  -0.1229189   0.0254240
  -0.8031943   2.1335342  -0.4357822   0.4677815  -0.7211212   0.4808574
   0.1487583   0.2553042  -0.1165441  -0.6328807   0.5741567  -0.1204773
   0.2754507  -0.8420921  -0.5832178   0.3301554  -0.2203923   0.1740554
  -0.6379129   0.3257041  -0.2435422   0.2497816   1.3396529  -0.3344319
  -0.0093484   0.2899684  -0.1681512   1.5069873  -0.3649747   0.8327914
  -0.1189992   0.2455443   1.2437510  -0.0761467  -0.0065000  -0.1476516
  -0.6430550  -0.9038026  -0.6436729  -0.3848927   0.5377357  -0.7092906
  -0.0478537  -0.0539834   0.0398846   0.9656926   0.0961469   0.6666496
  -0.6055812   0.4548053   0.6793308   0.2986409   0.1749266  -0.0499133
  -0.9369531   0.4677298  -0.6754699  -0.3618755  -1.1177483  -0.2838489
   0.1720810   0.1887989  -0.0900297  -1.4879076  -0.4317059   0.8350892
   0.0011767  -0.4598694  -0.5500925   0.2378793   0.1536646  -0.1712147
  -0.6927045   0.3217481   0.5402465   0.0739381  -0.0038353   1.0849127
   0.1748934   0.0326500   0.0911005  -1.2041235  -0.2466030  -0.1624219
   0.3330326   0.2373133   0.4381351  -0.2373980   0.0433314  -0.2556295
  -0.9078648  -1.4192758  -0.0013516   0.2448740   1.0253385   0.2477171
   0.3115205  -0.0649042   0.1610823  -0.2696312  -0.2304998   0.2198711
   0.2538147  -0.6397527   1.1749612   0.2828411   0.3932112  -0.2890925
  -0.0401809   0.3820820  -0.3903616  -1.1608251   0.4836646  -0.5326392
  -0.0625335  -0.1246051   0.0879827   0.4758775  -0.4112105  -0.3213032
  -0.8686090  -0.8592314  -0.6762357  -0.0315150  -0.0546166  -0.0953292
   0.6728822   0.5545591   0.2550954  -0.7389304   0.9335431   0.1153790
   0.0560118   0.1522221   0.1148097   0.2110993   0.3468033  -0.5463212
   0.3955283   0.3105886  -0.7116210   0.1109893   0.0083689  -0.1880580
  -0.6413007   0.5426403  -0.5941710   1.4515018  -0.2234026   1.2883987
   0.1898932  -0.1192120   0.1178295  -0.9852110  -0.0498374   0.3538952
  -0.0281644  -0.2321771  -0.2991062  -0.1444104  -0.1704787   0.0143916
   0.5402457   0.5201595  -1.4428182   0.6950462   0.2323610   1.1698681
  -0.0011070  -0.1399884  -0.1790475   0.4265319   0.0934135  -0.2277851
  -0.0311651   0.6264228   0.7302976  -0.3340607  -0.4311882   0.1363280
  -0.2077449   1.0958769  -0.2440582  -0.5754789  -1.3847588  -0.5603889
   0.0003886   0.0789781   0.2978215   0.3043060   0.9342853   0.7539020
   1.0650427   0.2548558   0.0458010  -0.0231356  -0.2612607   0.0631194
  -0.3545457  -0.8801450  -0.1735392  -0.1201239   0.4330752   1.4101487
   0.1842272   0.0337685  -0.1904783  -0.0182316  -0.6786110   0.0397313
  -0.2535678   0.8518850  -1.2649702  -0.1605053  -0.0099913   0.2911641
   0.4822537  -0.5141609   0.9925101   0.3459403  -0.0244708   0.7391626
   0.0989151   0.1565461   0.5274242  -0.0415878  -0.6045556  -0.8645130
   0.8504038  -2.0283604  -1.9373215  -0.2389887  -0.0795831   0.1744236
   0.5018718  -0.7383405  -0.7020873  -1.7434390  -0.8111888  -0.0538213
  -0.0518180  -0.2136170  -0.0589726  -0.2293249  -0.4795732  -0.1293647
   0.3456590  -1.2172982   0.9903201  -0.3027081  -0.1934984  -0.0135802
   0.8449904   0.5122572   1.5501881   1.0012763  -0.0594183  -0.6993678
   0.0903524  -0.0022896  -0.2106186   0.7620675  -0.1440382  -0.8539185
  -0.3158921   0.2868849  -1.4689640   0.3273380   0.1772184  -0.0077676
  -1.1375510  -0.1608801   0.4147079  -0.1566084  -0.4007548   0.5040253
   0.0150743  -0.1408950  -0.5854526  -0.8524450   0.6722113   0.7499599
   0.4320143  -0.4570765  -0.8330342  -0.3913882   0.2548293   0.2792012
  -1.4408095   0.5440954  -1.7439075  -0.1040989  -0.8534809   0.2175003
   0.2274414   0.3188893  -0.1679245   1.0195210   1.9648389   1.3662633
  -0.1205287  -0.0891016  -0.1334311   0.2403920   0.1479014   0.3226012
  -1.0148499  -1.6299149   1.1423657   0.0837474   0.0789707   0.0079872
   0.0960857   0.2288076   0.0981043  -0.7644201   0.0304074   2.0735705
   0.6115625  -0.2097482  -0.3412937   0.2667245  -0.2128950   0.1106456
  -0.6166216   0.1780429   0.3527123   0.1271136   0.3857992   0.9659907
  -0.1345412   0.0436606   0.0005697  -0.3353741   0.5631027   1.0069069
  -0.5738624   0.0985392   0.0578340   0.0788456  -0.0297421   0.0290005
   0.4198341  -0.4253530   0.3692825  -0.1930393  -0.2667696  -0.4503507
   0.0766395   0.1723932   0.4408228   0.3775536   1.0402344  -1.5100054
   1.0324862  -1.0177985   0.3656540   0.0089690   0.0721179  -0.0039043
   1.0486256  -0.1991053  -0.4377691   0.2474357   0.3579636  -1.7545122
   0.1547225  -0.3521209   0.2508273   1.8531873   0.6695309   0.1962040
  -0.9412442   0.1521204   0.5317261  -0.4362639  -0.1278088  -0.0441887
  -0.7610218  -2.0689776   0.3853245   1.3962100   2.0005732  -0.6136613
  -0.1279210   0.1370807   0.3241632   0.4717459  -1.1968902   1.7666161
   0.3617275   0.9427819   0.2094033   0.0070460   0.2452658  -0.1229897
  -0.4077101  -1.0004041  -0.4688601   1.2943262  -0.2334921  -0.1822957
  -0.1685437   0.2766406  -0.0041985   0.3374189   0.0496956   0.3345703
   0.0686954   0.4691395   0.3295695   0.4527314  -0.5016485   0.2823578
  -0.3245699   0.5128084  -0.3535310  -1.2013818  -0.5422612   0.0528656
   0.1369891  -0.1669184  -0.1033823   0.3214724  -1.2230299  -0.4620886
   0.3433011  -0.9307072  -0.0127650   0.3258932   0.3550936   0.1279427
  -0.5166772   1.9797555   0.7601249   0.3246663   0.5465465  -0.8512232
   0.2191730  -0.2299456  -0.0612421  -0.8579836   0.2602905   0.1795740
  -0.8442851   0.1442814  -1.4192736  -0.3220278   0.2370926   0.0184626
   0.1514983   0.3949305  -0.2976811  -0.4164559   0.9024138   0.0566921
  -0.1589074  -0.0628134   0.2081389  -0.2407962   0.4336127   0.5985444
  -0.2411328   0.0045992   1.0360492   0.4029496   0.4112802  -0.1361840
   0.1632937   0.4570728   0.6379694   0.0572074  -0.0398988   0.5773422
   0.0645119   0.0786441  -0.0957486  -0.6415645  -0.1055103  -0.7508773
   1.5225953   0.6189278   0.0307997  -0.1463878  -0.0747902   0.0499697
  -0.0771405   0.0415354   1.6598589  -0.1510701  -0.8119457  -0.0343949
  -0.2643656   0.1190925   0.2328146  -1.0314484  -1.0617117   1.1399904
  -0.3505928  -1.9316839  -0.2851171  -0.0568254  -0.3705744   0.2331123
   0.4804367   1.0583156   0.0747580  -0.4269255   0.9267796  -0.1033924
  -0.1104772   0.0511181   0.0091121   0.8010248  -1.1972146   0.7188977
  -0.2018158   0.0475518  -0.9062622   0.0303135  -0.0665568   0.1880078
   1.0416132  -0.5257379   0.3354896   1.9376366   0.5721740  -0.2615886
   0.0864616  -0.1606479   0.4431005   0.3925865  -0.7420945  -0.5155414
   0.4529426  -0.5120977   0.8820616   0.0488986  -0.0606543   0.1106621
   0.0545694  -0.2514348   0.6231214   0.9919639  -0.5064845  -1.5965821
  -0.1506123  -0.1193884  -0.1844148  -0.3335317  -0.9292288   0.2376154
   0.7891902  -0.3754200   1.3366295  -0.0882827  -0.1010147  -0.0382106
   0.2983229  -0.4641908  -1.3164573   0.3599855   0.4497823  -1.0634302
  -0.1901743  -0.2733646  -0.0366657   0.7001852  -0.0665711  -0.2955168
  -0.2276637   0.2043178  -0.6454163  -0.0541696   0.1857913  -0.0602323
  -0.8400615   0.7194264  -1.3476728  -1.2465886   0.1620164   1.1145382
   0.3435996   0.0078983  -0.1859738   0.3460446   0.2097481   1.1069038
   0.3323044  -0.8616211   0.5196077  -0.0552559  -0.2450123  -0.0017447
   0.0411741   0.2921354   0.7649113  -0.4566280  -0.1606003  -0.3711443
   0.1227984   0.0620267  -0.0416357   0.5304563  -0.4974176  -0.4276967
   0.1636130  -0.9304379  -0.0674686   0.1058054   0.1447483  -0.0630842
  -0.1159649  -0.0047500   0.7563105  -0.0480006  -0.8560708   0.1469731
  -0.0717629   0.0129515   0.1849418  -0.4674915  -0.4377662  -0.1898891
  -0.7898414  -0.9029047  -0.5504919  -0.0772682   0.0709003  -0.0400282
  -0.4250239  -0.6393912   0.4736442  -0.6531966  -0.2886640   1.8879231
  -0.0656004   0.1230198   0.0607451   0.0737205   2.5822380   0.0011250
   0.8934089   1.0491163  -0.0213005   0.1986041  -0.1195500   0.1838681
  -1.0996848   1.1888592  -0.3418542  -0.8576103   0.9403292  -1.9565539
   0.1025341   0.0436051   0.0132494  -0.0318696   0.9222221  -0.7552280
   1.1364003   1.9942048  -0.6652985  -0.2374794   0.1064431   0.2178944
   0.3502308  -0.3849098  -0.7608311  -0.7420288   1.0181962  -0.2266382
   0.1337122  -0.1962344  -0.2167781  -0.6889053  -0.2208356  -0.1267768
  -1.2926800   0.6133512  -0.5389895  -0.1402828   0.1894416   0.0362780
  -0.2614627   0.2056252   0.0444060   0.0471212   0.6144968   0.9126911
   0.1365755  -0.0738068   0.0098547   0.3006707  -0.1468776  -0.1618739
  -0.4675767   0.2245685  -1.0136178  -0.0738053  -0.0321622   0.0441516
  -0.3756210  -0.4726066  -0.2970821  -0.1456111  -0.5261344  -0.5733998
   0.1626725   0.1030375   0.3095040  -0.8621743   0.8957504  -0.9588336
   0.3072762  -0.2559127   0.1607786   0.1241269   0.1730549  -0.1621889
  -0.9266558   0.3047101  -1.6310641   0.0160139   0.3478811  -0.0124087
   0.3113006   0.0929089   0.2520313   0.2152497  -1.4264793   0.8772322
   0.2890577  -0.0408346   1.7132039   0.0861191   0.1060577  -0.1712325
  -0.9404405  -1.1443936  -1.1583117   0.0304002  -1.2054348  -0.1672839
  -0.3116944  -0.1108421  -0.1188513   0.1741110  -1.1391118  -1.6559082
  -0.3352118  -0.3540890   0.5588355  -0.2425667  -0.0583481  -0.1102122
  -0.0694756   0.8883600   0.9184354   0.7834883   0.2637636  -0.3716303
   0.0396793  -0.0466446   0.0894220  -0.5280632   0.6847880  -0.0871048
   0.6709933  -1.6218162  -0.0201188  -0.2697603  -0.0563371   0.1167157
  -0.2940352   0.5470930   0.8501487   0.5159808   0.6580737   0.6437609
  -0.3688694  -0.0978847   0.0123886   0.4251992  -1.0557661   0.5083433
   0.5661805  -0.9916598   0.1103603  -0.0329205  -0.1120062  -0.0362842
   0.7503843   1.0687079   0.0137158  -1.1697778  -0.6319813  -0.7931876
   0.3322995  -0.2031216   0.0447784  -0.0621615   0.3670086   0.0024861
  -0.0705379   0.4882042  -0.6595858  -0.1752387  -0.1433477  -0.0121416
  -0.8695952   0.4817514  -0.1306594   0.6983458   0.1139340  -1.0280452
  -0.1501831  -0.0328359  -0.1429210   0.9696934  -0.8785793  -0.2690627
  -1.1487285   0.1526320   0.4267446  -0.5148728   0.2353980   0.0696887
   1.1189606  -0.1617330   0.1719173   1.5559008  -1.3658985  -0.5201877
  -0.1188833  -0.0114193  -0.1801274   0.1683935   0.8588578  -0.7987884
  -0.0341126  -0.2957340  -0.6228212  -0.3448685   0.1811037   0.1618736
  -1.2387142  -0.0938041   1.4309132  -0.3275274   0.1996413  -1.4807889
   0.1395755  -0.1047876   0.2697263   0.6366842  -0.7287850   0.2452626
   1.9696707   0.0476136   0.9130278   0.1607204   0.1182803   0.1284162
   0.3268330   0.4221040   0.1023520   0.1180536   0.1033602  -0.5770386
  -0.0091141   0.4526482  -0.0875698  -0.4332594   0.7726820   0.0495694
   1.1572412  -1.0238023   0.9193172   0.0663351  -0.1199581  -0.3110557
  -1.0352110  -0.1180507   0.1786655   0.2440130   0.1192116   0.1063648
   0.1658735  -0.0552676  -0.0374308  -0.8085998   1.8097192   0.2132941
  -0.7504482  -0.4345877   0.8807309   0.3588442   0.1514738  -0.1771099
  -0.5619156   0.7047848   1.0697155  -0.6632497   0.9373568  -0.1635416
   0.0585380   0.0664356   0.1302239  -0.1203522  -1.0568752   0.7444125
  -0.4788631  -0.5300370   0.8523917   0.2599475   0.1172032   0.4177474
  -0.2695663  -0.7316480  -0.2148992   0.5222423  -1.6008718   0.8856044
  -0.0498834  -0.0705219  -0.0396408  -0.0218181   0.2765861  -0.5134547
   0.6832802   0.2813580  -0.3279538  -0.1429664   0.0526618   0.2002391
  -0.2718757  -0.4754392  -0.3323368   0.6998429  -0.6101807   0.2417172
  -0.1939434   0.0379833  -0.0238540  -1.5147442  -1.4194469   1.9196316
  -0.9069490  -0.1256003   0.3283775  -0.1971822   0.0707935  -0.0638313
  -0.5322357   0.0533763   1.0910754  -0.3205193  -0.1111626   0.9095807
   0.0278196  -0.0187603   0.1986158   0.4575885   0.9231697  -1.1380085
  -1.4264226  -2.2058609   0.3740470  -0.1289884  -0.1043584   0.2226729
   1.0991974   0.7429143  -1.3774307  -0.3533682  -0.9045659   1.3006040
   0.1157566   0.3557728   0.1298956   0.1615139   0.5642889  -0.3335682
   0.5363251  -0.3471397   0.2493068   0.3366929   0.0737485   0.2153441
  -0.6678995  -1.2737237   0.0080347  -0.5805933   0.8195939   0.7147866
   0.3980173   0.0994006  -0.0580938   0.9249997  -0.1391573   2.0012801
  -0.1590346   0.0607182  -0.7633153  -0.1031906   0.3104989  -0.2554119
  -1.9178257  -0.3116848   0.2499267   0.0586486  -0.5543026  -0.3771937
  -0.3497877   0.1006542  -0.3797150  -0.1279645  -1.4577284  -0.2048186
   0.6087750   0.7803456   1.0855552  -0.1648572   0.1155444  -0.2015402
  -0.2497499  -1.5721136   0.5843372   0.2218436  -0.9593346   0.3515404
  -0.5091248   0.0705967   0.1103727  -0.4070784   0.0304063   1.5055972
   1.3841064   0.0522931  -0.5177553  -0.2387025  -0.0472218   0.0281245
  -0.7733380  -0.0749106   0.6525731   0.7874883  -0.9237700  -0.8925632
   0.0225409  -0.0910925   0.0580575   0.5515170   0.0347609  -0.0461704
  -0.7937615  -0.6953187   0.0138776  -0.0229220   0.1997057   0.3120283
   0.6787479  -0.7195880   0.0439819   1.2305454   0.0066386  -0.4401012
  -0.0090405  -0.1377441  -0.2766930  -0.8757622  -0.7417001   0.0387521
  -0.3692805   0.7360061   0.0733091   0.0059737  -0.1680201  -0.1190359
   2.1679161  -0.8141508  -0.1053361   0.2062151   0.1159489  -0.6818136
   0.1545036  -0.0591122  -0.2322279   0.4348356  -0.8685275   0.6704249
  -0.0274996   0.5169238   1.0878465  -0.3067662  -0.0170519   0.2382723
   0.3536376  -1.3127640  -0.1610729  -0.3333144   0.3403478   0.6696110
   0.1538852   0.1768097  -0.2316757   0.7648338   0.1979041  -0.0485436
  -1.2376620   0.1392325   0.9865366   0.1291171   0.0287902  -0.0037581
   0.2714885  -0.0200015  -0.6928829   0.4674519   1.3424170   0.9473579
   0.0349538   0.0298652  -0.1333893   1.2988073  -0.7746065   0.6011255
   1.9521135  -0.4607571  -0.7669311  -0.4564939   0.3218205   0.3441392
   0.0068035  -0.4937103   0.7098932  -0.0214627   0.3118330   0.3843828
  -0.0407151  -0.0208623   0.1295406  -1.6180845   0.6527365  -0.4196489
  -0.3363881  -0.0267424   0.6510298  -0.2832760   0.0125902  -0.3176081
   0.0608749   0.3460080  -1.4610082   0.8694180   0.6519592  -0.2488814
  -0.3648137   0.2133185   0.0407898   0.3898231   0.0195152   0.7199146
   0.1120886   0.7451481  -0.4647328   0.0398497  -0.0104343  -0.3203905
  -0.1268821  -1.5071056   1.5443945  -0.5596691   0.5771711   0.3319346
  -0.0256165   0.0465756  -0.0915921  -0.0917008  -0.4582062   0.1968397
  -0.6323396   0.5419048  -0.7192182   0.1754019   0.3792988  -0.0069845
   0.0315395  -0.9937545   2.4276521   1.3931967   1.1955671  -1.4234176
  -0.1148005   0.2436005  -0.1401831   0.4666042   0.6675301  -0.2149792
  -0.4284546   0.0703404   0.3902835   0.1916942  -0.0042482   0.2926250
   0.4954744   0.0770213   0.2656149  -2.4958913  -0.1484069  -1.3401388
  -0.4277699   0.2927257  -0.1109450  -0.3752636  -0.9995005   0.0386398
  -0.9957341  -0.4433146   0.1796085  -0.3361151   0.1266466   0.2506316
   1.6311134  -0.9962309  -0.4428137   0.5523937  -0.8337907   0.0383502
  -0.0203418  -0.1240977  -0.1384865   0.0306233  -0.6761596  -1.7143477
   0.6557040   0.7896678   0.9073874  -0.1431684   0.0749087  -0.0168406
   0.1079804  -0.8844728  -0.0935302  -1.6797436   0.8606282  -0.1852830
   0.0242209   0.0714413   0.0722580   0.1806123  -0.6509555  -0.5216530
  -1.0936780  -0.2572703  -0.3926916  -0.3223106  -0.0048027  -0.2953172
   0.4176748   0.4289535   0.4163932   0.6501698   0.2738630   0.7996666
   0.1845164   0.2637065   0.0465244  -0.1922464  -1.0837835  -1.0727109
  -0.2577072   0.5016791  -0.8418534  -0.0967552   0.0575154   0.0319287
   0.3829653   1.6798214  -0.8828235   0.1554079   1.1951253  -0.7359664
  -0.2512688  -0.1398727   0.1574776   0.3267482   0.6510553  -0.1139049
  -0.3934831   0.2504596  -0.0396042   0.1509492  -0.1266997  -0.2360057
  -0.2345034   0.4139850  -1.1162318   0.4037444   1.3842162  -0.1620820
   0.5112669   0.2466355   0.1877078  -0.0905301   0.5899064  -0.3246325
   1.3004795  -0.3591242  -0.5782801  -0.1226528   0.1664016  -0.1733779
   1.2549279   0.3054908  -1.5429149  -2.0608087  -0.7264464  -0.4018725
  -0.2839745   0.2530824   0.1594851  -0.8198403  -0.2521851   0.1168463
   1.9094559  -0.1598129  -1.3604679   0.1342638  -0.1740358  -0.4102984
  -0.0943334  -0.1158973   1.0676258   2.1334686  -0.7235510  -0.3516386
  -0.0363787   0.0722574   0.3628584  -0.1772720  -0.3297943   0.2003954
  -0.9499859  -0.6996883   0.0217502  -0.2031529   0.3049984   0.0212076
   0.0349887  -0.7359641   0.8128911  -1.0923055   1.4266024  -1.0825349
  -0.1448279   0.3903095   0.1011258   0.5774681   0.1657475   1.4605268
  -1.6456395   0.3439875   0.1712824   0.1283243  -0.1473221  -0.0092463
  -0.3400323  -0.6794488  -0.9010329  -0.9867094   0.2291940  -0.1202395
   0.1963272   0.2253701   0.3602619  -0.4281019   0.2126500  -0.4651198
   0.2336706   0.1722723   0.5684434  -0.1380779  -0.2078503   0.1630705
  -0.1481860  -0.1116793   0.9359006   0.6584513  -0.6692056  -0.6941083
   0.0270909  -0.3283517  -0.0951675  -0.6390929   1.0831015   0.6276151
   1.0855492   1.4252105  -0.1494204   0.3130296  -0.1446826  -0.1920155
   1.4388605   1.3719949   1.0830922  -1.3678561  -0.7093915   1.2832820
   0.2808505  -0.5717012   0.1236945  -0.6503667   0.5509838  -0.4002748
   0.6706196   0.3580712  -0.0405710  -0.4294353  -0.3327633  -0.2802907
  -0.6155179   1.4732430   0.0079622   0.4011581  -0.3199005  -0.1230873
   0.1106027  -0.0320025   0.0153303   0.0421367  -0.3353581  -0.8701431
   0.0098910   0.0058529  -0.2435560  -0.0632957  -0.1008440  -0.0133455
  -0.0257034  -0.7115068  -0.8928733   0.2716752   0.7553625   1.9321730
  -0.2130361  -0.3082855  -0.1483333  -0.7745670   0.0799536   0.2369895
  -0.5272993  -2.0577085   0.4411658  -0.1241454  -0.0001345  -0.2884764
  -0.8633571  -0.6717880   0.1564644   0.1775867  -0.0021212   0.7124139
   0.0547848   0.0920037  -0.1270754   0.2268500   0.2389869   1.0818255
   1.5573809  -1.2069167  -0.9780217  -0.1599996  -0.2020735  -0.1811948
   0.2040287  -0.5747132   0.3113427  -0.7631944   0.4269964  -0.6944883
  -0.2251056  -0.5362185  -0.2030835  -0.1111115   0.0244510  -0.4163562
   0.5302693   0.2647241   0.0873033   0.1325343   0.1029560   0.1004237
  -0.3048281   0.3285374   0.3964908  -0.7489241   0.5214655  -1.0337139
  -0.1108368  -0.1441637  -0.1388483   0.3336523   0.6213462   1.1294034
  -0.7029057  -0.1625875  -0.1961467  -0.1468336   0.0652760   0.1337359
  -1.1565557   0.0357356  -0.3270136   0.3075644   0.7028086   0.0743033
   0.1130574  -0.0979806   0.1022194   0.1718016  -1.2159307   0.2746210
  -0.4270202  -0.4548872   0.1140685   0.1051795  -0.0224114  -0.0537502
  -0.5496441  -1.0365071  -1.2143067   1.2498565  -0.5932654  -0.8348460
  -0.1921715  -0.1259807  -0.1907194   0.5148157   1.2332144   0.9785042
  -1.5164176   0.2797831  -0.3933032   0.0353529  -0.1209702  -0.0715625
   0.8638731  -1.2728933  -0.6895902   0.9496379  -0.6055918  -0.6939712
  -0.1824484   0.2032604  -0.3043332  -0.4467935   0.0687910  -1.2994338
   0.6229581   0.0503363   0.2088506   0.1773349  -0.1786640   0.1069192
   0.3459060   0.3815100  -0.2653483   1.0179672   0.1692609   0.3092099
   0.2378758   0.2871522  -0.1734788  -0.5764246   1.0788516   2.2686803
  -0.0130332   0.4950510  -0.6189117   0.0591530   0.2152325   0.1106322
  -0.0016848  -0.0400108   0.1994008  -0.6442400   0.9243034   0.0415984
   0.3363422   0.1039080   0.2807609  -0.9559811  -0.1835976   0.0534642
   2.0607815  -1.0535437  -0.5132325  -0.1826846  -0.0682190  -0.1526199
   1.6559955   0.4738511  -0.3293817   0.3983335   0.2284840   0.6537052
   0.1155013  -0.0893668  -0.1672570  -0.8209949  -0.7704591   0.0247024
  -0.0700407  -0.0418388  -0.0659313  -0.1832775   0.0997614  -0.0329044
   1.0401742   0.4160581  -0.6847311   0.4325290   0.8268593  -1.0146732
  -0.2906884   0.1780681  -0.0310332  -1.2226949  -0.5329235   0.4321423
   0.5152536  -0.6386678  -1.3711135  -0.0672895   0.1150016  -0.0319663
  -0.9582872  -0.8981050   0.4835820  -0.3517458   0.4655504   0.7973186
   0.0245279  -0.1851418   0.1109602   1.4881772   0.1511851  -0.8909171
  -1.2864106   0.7151339  -0.6841700   0.1884404   0.1710826  -0.1136079
   0.1154903   0.1480349   0.2474798  -0.5695798  -0.7270123   0.2643658
  -0.1798723  -0.0699233  -0.0692987   0.6179177  -0.2201827   0.4954490
  -0.1655855  -0.5995297  -0.7320088   0.1660041   0.0549224   0.0796366
  -0.3763273   0.4837355   0.6580040   0.7661460   0.3755498   0.3941698
   0.0439788   0.2253944  -0.0004956  -0.0461115   0.7444973  -0.6575424
  -0.1620674   0.0599091   0.9347708  -0.4244494  -0.1874667  -0.1182578
   0.5148361   0.1618547   0.4114374  -0.5732625   0.0035644   0.7375975
  -0.0643442   0.0520029  -0.0222330   1.1941798  -0.7850799  -0.8852224
   0.6176614   0.8974503  -0.5134191   0.0417207   0.0746837   0.2691507
  -0.3747585   1.3162409   1.5638162   1.2808092  -0.7922667  -0.1272931
   0.2269702   0.3557071  -0.3426938  -1.8338046   1.6667480   0.5202364
   0.5990380  -0.9692462  -1.8936273  -0.1498784   0.1883633   0.2415923
   0.3849004  -0.4207595   1.0746861  -0.2373383  -0.6275901   0.4425482
  -0.3049232   0.2929890  -0.0692227  -0.1863167   0.5033537   1.1282446
  -0.0913119  -0.8082507   1.3678118   0.0874899  -0.1063898   0.2413943
  -1.4537243   1.2028782   0.2311561  -0.0417920  -1.1195880  -0.1745662
   0.2174312   0.1166302   0.0342330   1.0955985   0.4825925  -0.3666317
   0.4540413  -0.6504629   1.3932089  -0.1662045  -0.2946452  -0.1323156
   0.9666851  -0.1665533  -0.5724684   0.6687286   0.2436701   0.6216708
  -0.1435821  -0.0985513   0.2259169  -0.8208420  -0.1831861  -0.5948975
  -0.1617308   0.1489596  -0.2178383  -0.2667287   0.0521394   0.2403739
  -1.1445919   0.7974851  -0.4074149  -1.2680882  -1.3342113  -0.5197086
  -0.2128538  -0.1867263   0.1761393   0.0279627  -1.7267433   0.5477555
   0.8687788  -0.7536998  -0.2579230   0.0235451   0.3100738   0.1865582
  -1.0418978   1.3032409   0.7273415   0.1343074  -0.6098622  -0.6894056
   0.2739732  -0.1000566   0.0810653  -0.2915986   0.4545937  -0.0941973
  -0.4114470  -0.0847093   0.4271655  -0.2398136   0.0708349   0.1088627
  -2.1681859   1.2537279   0.9533916   1.1871887  -0.8487462   1.0421045
  -0.0848419   0.1852478  -0.1356269  -0.1234531   0.3148332  -1.7354710
  -0.0650549  -1.5399728   0.2697079  -0.0229520  -0.2209491   0.0101489
  -1.3378702  -0.0327943   0.6974656  -0.4199937  -0.3270868  -1.3830984
   0.0817414   0.0154335  -0.1369809  -0.2789480   0.6956813   0.7071692
  -1.0017763  -0.2570295   0.1311257  -0.0325195   0.3457865   0.0148606
  -0.8374230  -0.4977756   0.3451677  -0.7179232   0.2664809  -1.6155943
  -0.0972544   0.0795563  -0.0139706  -0.8506929   0.4417537  -0.0962370
  -0.0730176   0.5612728  -0.2536014   0.1118938   0.3287322   0.0979856
   1.0953079  -0.2382320   0.6163321   1.1233326   0.1247554   0.1594870
  -0.3497584   0.1472789   0.1980888   0.0731359  -0.0943223  -0.5678279
  -0.8268817   0.4683490  -1.3381786   0.1217594   0.1566049  -0.1101570
  -0.2236074   0.0034377  -0.1255500  -0.6794798   0.1889583  -0.6946048
   0.1877954  -0.2311652   0.0524074   0.8506311   0.4996800   0.1885329
  -0.5464035  -0.2615547   0.0135885  -0.1461734  -0.3197547  -0.0925700
  -0.1723063   0.1496785  -0.1837544   0.7579418   1.6288391   0.9079621
   0.0493876  -0.0750749  -0.0293498  -0.6338661  -0.1485739   0.4993345
  -1.5717216   0.1207058   1.5315694  -0.1840363   0.1936014  -0.0700047
  -0.1377435  -0.0537348  -0.1831074   0.0317157   0.4699620  -0.4454930
   0.2065719   0.1375378  -0.1255999  -0.8199154  -0.5072142   0.6576915
  -0.2694755   1.0037200   0.3074780  -0.0902872   0.1038443   0.0051881
  -0.0173915   0.5701720   0.3869308   0.3940760   0.9717603   0.2629273
   0.1782810  -0.0087341  -0.3575729   0.7250266  -0.8373407  -0.4444144
   0.1285551   1.0944666  -0.5833997  -0.0272649   0.1155702  -0.2518979
   0.4784001   0.4997741   0.5173351  -1.9406219  -0.2025389   0.0392481
   0.1004874  -0.1744794  -0.1655941   0.6897382  -1.3377502  -0.5068000
   0.2529512   0.2689804  -1.6057001   0.0424684  -0.1164120   0.1486889
   0.9075956   0.8260346   0.6564374   0.5328940   0.2085820   1.0479270
   0.1737726  -0.2722082  -0.3426250   0.1059026  -0.7116929   0.7339877
  -0.0303923   0.2293924   0.1838013   0.0504171  -0.3952928  -0.0519841
   0.9833804   1.5855265   0.7535543  -0.2176471  -0.1689201  -1.3933356
  -0.1381918   0.0447905   0.0565128   1.0335122  -0.6787652  -0.4740821
   1.5441999   1.1853315  -0.2906390  -0.2038386   0.1935042   0.0362852
   0.6565254   0.3501634   0.6013408   0.6237012  -0.5756018  -1.1330546
   0.2342990   0.0602965   0.1328645  -0.6103944   0.3947755   0.1208901
  -0.3557686  -0.0699445  -0.8271718  -0.1652973   0.1099033  -0.2195865
   1.5099119  -1.0790194   0.9550617   1.1020230   0.2778293   0.0660465
   0.1448839   0.0455990  -0.1731162  -0.1387025  -1.5095993  -0.5849746
  -0.0838542  -1.9011781  -0.7022105  -0.4272411  -0.1527794  -0.1693172
   1.4833242  -1.1261325   0.7204969   1.2194058  -1.8430614   0.1343117
  -0.0643489  -0.2404922  -0.0094628  -0.5662797  -0.1322407   0.6279026
  -0.9595180  -0.6260400  -2.0847135  -0.1272316   0.0198254  -0.1748437
   0.7945121  -1.4338162   0.4631095  -0.1966171   1.3259758  -0.5862985
   0.0703654  -0.0769390   0.2426468  -0.4856547  -0.3182513   0.5402863
  -0.9244806  -0.4939402   0.4680597  -0.0229963  -0.0273474   0.1877459
   1.2144052  -0.2738306  -2.2817075   0.3459728  -0.2833306  -0.8123695
  -0.1277084  -0.0965503  -0.1370026   0.2305887  -1.4091516  -0.2482687
  -0.4336365  -0.6121281  -1.2136136  -0.0419734   0.6476331  -0.1777303
   0.6814119  -1.4231309   0.0241687   1.8260906   0.7585323  -1.0639477
   0.1366689   0.3086967  -0.0616468  -0.3022400   0.0060437  -0.5918576
  -0.7305813  -0.7812722   0.0954620  -0.2841943   0.0456346  -0.0629462
   1.3012562   0.0815830   0.0237177   1.5678331   0.1993670  -0.6429486
   0.0367515  -0.1418224   0.0162984   1.0465710  -0.4928389  -0.3590556
   1.8490278   0.8772650  -0.7082031   0.0164574  -0.0828825  -0.3980172
   0.4439414  -0.7712197   1.0068542   2.2084918   0.8533437  -0.0411656
   0.0632937   0.2459400   0.2366411  -0.7872498  -0.6856861   0.6507929
  -0.0318776   0.3082617  -0.8621823   0.1398970  -0.3086900   0.1616385
   0.4706756  -0.7483281   0.6651496   0.7196416   1.1939163   0.6420496
  -0.2620663   0.0854717  -0.1140978  -0.4724540   0.6856384  -0.7085311
   0.1016087   0.4499808  -1.3419007  -0.0180951  -0.0336238  -0.0545646
  -0.5792034   0.1431003  -1.1990321   0.0221195  -1.2432091   1.3252119
   0.2679805  -0.4490471  -0.1959959   0.4290805   0.5871553  -0.2026940
  -1.4855722   0.3152533   0.8332880  -0.1530083  -0.1901796   0.0245289
   0.6756572   1.0690267  -0.3138696  -0.8194609   2.4854412  -0.1076350
  -0.1416475  -0.0196740   0.2885256  -0.8105396   0.6046916   0.2574778
   1.1085488   1.7341455   0.1008853   0.0574975  -0.5006592  -0.2024628
  -1.1404877  -0.0134656   0.2474230   0.1138263  -1.1144732   0.0604227
   0.0217890  -0.0784887  -0.2952333  -0.7069757   2.3316448  -0.4641920
  -0.5816603   0.7516772  -0.8105007   0.0351031  -0.0111065  -0.4277310
   0.2169421  -0.3279279  -2.2883070  -0.2801043  -1.3938113  -0.5975009
   0.3364673  -0.1472106   0.4276923  -0.1087482  -0.2723833   0.8300685
   0.9433842   0.1238790  -0.6243446   0.0100487   0.5621329  -0.3974198
   0.1271135   0.9107733  -0.1750758  -0.3809158  -0.7900630  -0.4605131
   0.0322147   0.1951721   0.0433342   0.1002476   0.5088930   0.1462241
  -0.0244176   0.3610576   1.0669799  -0.0948222   0.0140999  -0.0472097
  -0.2716109  -0.3784996   0.6419472   0.7721769  -0.4847389   0.8551850
   0.1088383  -0.0283164  -0.1187034  -0.3028844   1.4998839  -1.0010190
  -0.1992030  -0.4829073  -0.0704652  -0.0360455  -0.0675741   0.1258747
   0.0246155   1.0741888  -0.7566585  -0.4397156  -0.3882287  -0.2601438
  -0.3248285   0.0085455  -0.0885823  -0.8990930  -1.0354192   0.8673276
  -1.5120980   0.2425770   0.3677846  -0.0320582   0.0579990   0.0968756
   0.1717349   0.3649743  -0.9697905  -0.5199754   1.0043240  -0.7688764
  -0.2105069   0.0759467  -0.0619146  -0.6334851   0.5803023   2.0992498
   0.7718771   0.7810898  -0.1899499  -0.1944843  -0.2103886   0.1330286
   0.0075298  -0.9703972   0.3292671   0.2453373  -1.3906784  -0.4897798
   0.2804600  -0.3685360  -0.2066549  -1.1648369   1.1326506   1.1342716
  -0.0542828  -0.1625665  -1.0169894   0.0278230  -0.0677920  -0.1153172
  -0.5738671  -0.1820695  -0.6509884   0.1744799  -1.4570494   0.1191496
  -0.2761123  -0.3580263  -0.3268985   0.6882913  -1.8928392   1.3498079
   0.3025026  -0.9671528  -0.1360873   0.0936782  -0.0787647  -0.2019320
  -0.1701828  -0.1663903   0.0895907  -0.1766259   0.4024851  -0.2373626
   0.0119558   0.0040209   0.1541578   0.0738065   0.7349936   0.5302206
  -0.6774278   0.5588399   0.3377127  -0.0868891  -0.0286357   0.2457210
   0.1163855  -0.8856762  -0.6500821   0.8452907  -0.6855582   0.5022407
  -0.2006102  -0.1439186   0.4815904  -0.1752319   0.1370213  -0.3702395
   1.4730972  -0.0434451  -0.0378323   0.1900771   0.1392353  -0.2452056
  -0.1894301   0.2510837  -0.4229435   0.8656893  -0.7209001   0.1330599
   0.3089755  -0.1678212   0.1563262   0.3340274  -0.0748342   0.6393477
  -0.7785452   0.0843841   0.5419821   0.0644842  -0.0844389   0.0084436
   1.1552802   0.2959762   0.1933696  -2.1514113   0.5381061   0.3768153
  -0.1764276  -0.4776399   0.1363001  -2.3305130   0.0763962   0.8984240
   1.0192494  -0.1830894   1.4390422   0.3367528   0.1162013  -0.1251071
  -0.5852416   1.0096858  -0.3304082  -0.2375297   1.1366762   0.8333713
   0.1060431   0.0719893   0.3141792   0.0634770   0.4265496   0.4701959
  -0.3783319  -0.1116357   0.5776839  -0.0203548  -0.0058823   0.0099219
   0.7401438  -0.7989476  -0.4450626   0.5895540   0.5573555   0.6723592
   0.4360236   0.1105276   0.0730374   0.0176242   0.3381885   1.2040499
   0.3919260  -0.0898903   0.6495506   0.3806204  -0.1805731  -0.4746214
  -0.9643110   0.1445487  -0.4850497  -0.8847820   0.5955400   0.0579855
  -0.1851510   0.0764951   0.0640832   1.0336332  -0.3558549   0.2260755
   0.3566982  -1.6718413  -1.1100365   0.2326625   0.0275295   0.0969495
   1.2716173  -1.0175660  -0.9551907   0.3491807   1.1887020   0.3588611
  -0.1246420  -0.0585055  -0.1274789   1.1052703  -0.1267793  -0.1489563
  -0.1505657  -0.5739585   1.4228164   0.1769994   0.0993929   0.1789067
   0.0296731  -0.8927873  -0.4791423   1.4346662   1.0531515   0.4206944
   0.0289478  -0.3420609  -0.3031590  -0.2370250   1.7068895  -0.4242494
   0.0632238  -0.6183877   1.3037094   0.1151986  -0.4358908   0.2710396
   0.7276918   0.4890148   0.9322938  -1.0498811  -0.4203469  -0.7191501
   0.2856029  -0.3136683   0.1916721  -0.1979379   0.6487849  -0.6177946
  -0.7280943  -0.5481296   0.3034193   0.0631351   0.1140117  -0.2782615
  -0.1812745  -0.2318208   0.8950961   1.6673005  -0.1601489   0.4409358
   0.0675900   0.0113571   0.0369296   1.4310383   0.6679178   1.2655253
  -0.5199017  -0.0532846  -0.3965660  -0.1064875   0.0466871   0.3500368
   1.3402513   0.2210513   0.7988990  -0.6353760  -0.1391996   2.6463070
   0.1783751  -0.5801505   0.0778043  -0.4010776   1.0613610  -0.5208813
   0.6224530  -0.9346170   1.2732865  -0.0545281   0.1069077   0.1207571
  -0.4438831  -1.1112187   2.3610427  -0.0289553   0.2026799  -0.5322463
  -0.0741583   0.0315399   0.1241435   0.3640212   0.4600188  -0.1068230
  -0.2773733   0.9485005  -0.4526106  -0.1483453  -0.2135176   0.2167702
  -0.0109579  -1.6796892  -0.5536039   0.4417495   0.7580560  -0.9455842
  -0.1796439   0.1075246  -0.1635950   1.2775233   1.1145610   0.7329637
   0.8636938   0.2081717   0.5815225  -0.0576673  -0.4278895  -0.1685204
  -0.1902457  -0.2156357   0.0836258  -1.2507859   1.7073390  -0.0038185
   0.0319980   0.0325632  -0.0374225  -0.1170690  -1.6853392  -0.8387883
   1.1795813   0.6748725   1.2591231  -0.0952990   0.2334999  -0.0827932
  -0.4918386  -1.6582056   0.0035802  -0.1265605  -1.0999711   0.3800534
  -0.0478958  -0.2242528  -0.1644166  -0.9049872  -0.9646859   0.3687291
  -0.0715805   0.5691458   0.9099172   0.0986593   0.1578433   0.2867560
   0.4160127   1.3002235  -0.5274885  -0.7288327  -0.9206468   0.7606160
  -0.0869805   0.0478238   0.1012229   1.9679646  -0.0164621   0.8157103
  -0.6051697  -1.9272577   0.4495074   0.2032351  -0.1220263  -0.1010192
   0.0547571   0.0766293   0.3349482  -1.0154001  -1.4569075  -0.5086065
   0.0489700   0.0556242  -0.2958031  -0.1252603   0.5774744   0.0991306
   0.2443701   0.4310670  -0.1251800   0.0920749   0.2859389  -0.0290055
  -0.3268071  -0.4284367  -0.0757643   0.0136710   0.9810800  -1.1777822
  -0.0748282   0.0547627  -0.3625281   1.8699925   0.2867155   0.7332410
  -0.6256459  -0.6908746   0.7096846   0.0320082   0.0182549  -0.0832606
   0.2976861  -0.4934795   1.6184070   0.5312687  -0.8012090   0.3148365
   0.3642858  -0.0683849   0.2349468   1.3784294   0.3980119  -0.6803145
   0.6715147  -0.4628951  -0.2366525   0.0568223   0.3993419  -0.2242862
  -0.9116203  -1.3278466   0.2041969   1.4049627   0.0096193   0.4757216
   0.1760306   0.0476573   0.1133623  -0.5386081  -0.1839894   0.0257797
  -0.7493035  -0.9986243   1.6841161   0.0929260   0.1250459   0.1266859
  -0.1718525  -1.0879878  -0.8095522   0.0914217   0.2418933  -0.5098284
   0.0264019  -0.0151675   0.1010694   0.0738635  -0.1372565  -0.6592107
   0.2219056  -0.5922165  -0.7762117   0.0823251   0.4208972  -0.0894341
  -0.0224105  -0.0258188  -0.2857114  -0.4416395   0.7954538   0.2875750
  -0.1326060   0.0097676  -0.3118195  -1.3905814  -0.3769562  -0.6148281
   0.7100659  -0.3305946  -0.6516029  -0.1160595  -0.2044139  -0.0473842
  -0.4217027  -0.2854399   0.8824018   0.5923492   0.2443938  -0.3013731
   0.1038227  -0.1583970   0.0795024  -0.6633235  -0.2300269  -1.3732594
   0.0218598  -0.7026745   0.6223031   0.0430935   0.2103974  -0.0865541
  -1.3616111   0.0671758  -0.6925652   0.7530549   0.8115430   1.2039400
   0.0795662  -0.2947772  -0.0452793  -0.3691108  -0.0186523   1.6269717
  -0.6177559  -1.0610453  -0.8005067  -0.0386478  -0.2766371   0.1730428
  -0.6645219   0.3413632   1.0399334  -1.2738290  -1.4834234  -0.6316497
   0.1699424   0.4671240   0.2023103   2.3825710   0.6557680   0.3489784
  -0.0157869  -0.5707732   0.5625507  -0.3123458  -0.5436730   0.3983935
  -0.7571180  -0.5904233   0.2635583   1.2816341   0.5146341  -0.8760721
  -0.0799240   0.0187605   0.2597005   0.3499405   0.7471723   0.5187498
  -0.0988022  -0.2476707  -0.1129973   0.0353925  -0.2493147  -0.1133482
  -2.0306811  -0.6589896  -1.0057129   0.1225873   0.4721547   1.1662068
   0.1742302   0.4370612  -0.1064533   0.5805622   0.1977369   1.2850567
  -0.6054611   0.2098965  -0.2892263   0.2576484   0.0789923   0.0526286
   0.2438424  -1.9097272  -0.4022618   0.8813292  -1.3150598   0.2823440
   0.1978632  -0.2929788   0.0852842  -1.0326879   0.2567296  -1.3322189
   0.8204309  -0.1683488   0.9718652  -0.1482131   0.0816882  -0.1655667
   0.8006999   1.5392376  -0.2829030  -0.0278765  -1.7691131  -0.6841435
  -0.1056836  -0.0822594  -0.0363348   0.1489972   0.7815847   0.9038471
   0.7581647  -1.1300019  -0.2061127  -0.0633293   0.1682185  -0.0892787
   1.1341624  -1.2042166   1.0122329  -0.3248994  -0.7716151  -0.4520230
   0.1701246  -0.1467082   0.2808107  -1.0037767  -0.3143795  -0.0714495
  -0.4847486   1.4665225   1.4936175  -0.0188305   0.2940550   0.0518603
   1.4939250   0.2271730  -0.8316622   0.7695512  -0.5740553   0.4078103
  -0.1370686  -0.0751449  -0.2275077   0.0950404   0.2184242  -0.8057529
   0.1338670   0.5006409  -0.7725172  -0.0276398   0.1195806   0.0956204
   1.0223459  -1.1582745   1.1142614   0.4080981  -0.8144246  -1.6865240
   0.2346054  -0.0618117  -0.0377501   0.6891898   1.1658549   0.9174100
   1.7244934  -0.8810107   0.7798557  -0.1873239  -0.2521498  -0.1482289
   0.0884804  -1.2999681   0.8869938  -1.1493034  -0.2274541   0.3713781
  -0.0841750  -0.2200969   0.1691726   0.8761506  -0.0023210  -0.7796409
  -0.1990753   0.1248495  -0.8561288   0.1461488  -0.1176557   0.3117411
   0.7804337  -0.8652223   1.3688196   0.7452695  -0.1770065  -1.1543261
  -0.0381328  -0.2326049   0.0880177  -1.6594779  -0.0428262  -0.7715014
  -0.5772007  -0.4356698  -0.1119366  -0.1028405  -0.1707934  -0.1191618
  -0.7946152   1.7017285  -0.3734951   0.9024636  -0.2535176   0.7085578
  -0.0485316   0.2926402   0.3413793  -0.4537792   0.0229652   1.1538038
  -1.0408125  -1.0908490  -0.3822128   0.0162925   0.2741304   0.2742113
   0.4358248  -0.9229115   0.4578433   0.7260302   0.3848550  -0.1968749
   0.1053682  -0.3528202  -0.2687097  -1.0266095  -1.5489190   0.2970686
   0.7564574  -0.0997376  -0.8183296  -0.0771237  -0.0974758   0.0823738
  -0.6296872  -1.1397951   0.2653072  -0.2189394  -0.9031354  -0.2041805
   0.0729267   0.1090984  -0.0982482   0.8588336   0.7121444  -0.6203568
  -1.0737903   1.1100190   0.8715864  -0.0022072   0.1634641   0.3495467
   0.0332368   0.3689402  -1.5912746   1.3058168  -0.6509740   0.3986990
  -0.2882429  -0.1888738  -0.1230268   0.0641837   0.8213279   1.0307797
   0.0881621  -0.2631104   1.6951073  -0.0769013   0.1488487  -0.0914753
   0.3429637  -1.1475198   0.1744096   0.2421416   1.4755601  -0.6310050
  -0.1472461   0.0105642  -0.2017387   0.0189703   0.8944508  -0.4154128
   0.3289325   0.6840999  -1.1698937   0.2819040   0.1514102   0.1627312
   0.0971148  -0.5162187   0.4893643   0.6563104   0.2915197  -0.0021913
   0.2189680   0.0369895  -0.4523407  -0.3900736  -1.0982827   1.1529013
   0.3211372   0.9175020  -0.3923543  -0.0369253  -0.1372624  -0.0886484
   0.4437422   0.1700906  -0.9851930   0.3629954  -0.4061098   0.0135811
  -0.0207735   0.2985880   0.0686408  -0.4707496  -1.3655580   0.9258823
  -0.7612554   0.5716389  -0.2272714  -0.0772213  -0.2729356   0.0785365
  -0.5842901  -0.2450074  -1.2971570   0.4438431   1.3875500   0.5972949
  -0.0791314  -0.0197759   0.0386568   0.4400383   1.4170533   0.7982955
  -0.4991013  -0.2600066   1.6950982  -0.1082309  -0.2653727   0.2423631
  -0.5348452   0.8523594  -0.5748030  -0.3796766  -0.0199998   1.0974481
   0.2466862   0.0504806  -0.1859751  -1.5481795  -0.4334767   0.6636825
  -1.2661322   1.3241870  -0.9179644  -0.2051000   0.0078840   0.4023760
  -0.7610295   0.3771309  -1.0827265  -0.9298110   0.0787540   0.5661460
  -0.3278894   0.0069177   0.1315577  -0.2186847  -0.7890901   0.5710436
  -0.0996191  -0.2721933  -0.7256052  -0.1052984  -0.3489853   0.0663933
   0.2214591   1.2019541  -0.2379303  -0.2993449  -1.2022004   0.6272769
  -0.0317154   0.0527228   0.1514997   0.4084245   0.0672454   0.8778640
  -0.6692390   0.3029944   1.2428817  -0.1138603   0.1961678  -0.2815424
  -0.0595603   0.6663953  -0.5830358  -1.2329546   1.2223128   0.2063657
  -0.0452822   0.3862885  -0.1609687  -0.0802067  -0.2185206   0.0641628
   0.5154378   0.6794931   0.6912088  -0.0252704   0.0501124  -0.1079201
   0.8467356   0.2326750  -0.8683934   1.8508054  -1.0515227  -0.6666658
   0.0895379   0.1458351   0.1007562  -0.3505651  -0.0643205   0.4425198
   0.4900842   0.0783865  -0.6431224  -0.3219914   0.3797640   0.1553984
   1.0148543  -1.3690795   0.3184502  -1.0478693   1.1982927  -0.5799674
   0.0104026  -0.1986201  -0.0058896   1.0329037   0.4427486  -0.8155146
  -0.2832568   0.1509811   1.2078183  -0.5238482   0.0288662   0.0414882
   0.4281616   2.2752879  -1.0489933   0.0364001  -0.9435023  -0.1680055
   0.0015182  -0.0277864   0.2664299   0.3016948  -1.0900992   0.0697431
   0.2572719  -0.6828027  -0.1564075   0.1055029   0.2065610   0.4108264
  -0.0371532   0.2878133  -1.3654501   0.4608410  -0.4966382  -0.3552299
   0.2117487   0.1209169  -0.0752017   0.0693062  -0.8467475  -0.0310304
  -1.4153392  -0.8350242  -0.0043693   0.1844074  -0.1899099   0.0733450
  -0.8144473  -0.2302545  -0.3543193   0.1195749   0.6692668   0.4363052
   0.2233616  -0.0837102  -0.0176846   0.6945600   0.3116409  -0.5508229
  -0.2834086   0.5555982  -0.7311312  -0.3105193  -0.0617869  -0.0575496
   0.1561242  -0.3509679   0.3802024  -0.5701657  -0.2544325   0.9410447
   0.2764111   0.1834909  -0.2755771  -0.7694638  -0.7482246  -0.1530834
   0.6580259   0.3206985  -1.0309000  -0.1087372  -0.0953728  -0.2832295
   0.1045189  -0.0420593  -0.4532652   0.7291226   0.1440683   0.7902349
   0.4555857   0.0737934   0.0032114   0.5478050   1.7360971  -1.1735322
   0.2750460   0.1510660  -0.0265148  -0.0130451   0.0023420   0.3083311
   0.4858229  -1.5999553   1.0499808  -0.9924700   0.2870142  -0.3952090
   0.2654563   0.5505672   0.0518744   0.1264988   0.1167504  -0.7330652
  -0.3292142   2.3988285   0.5237631  -0.3018288   0.0351700  -0.0241225
   0.1489177  -0.0289134   0.7205853   0.6493099   0.4337735   0.1680170
   0.0661371   0.0214730   0.2442324   0.8065677  -0.7397214   0.8567928
   0.4294372   0.1470565  -0.9019166   0.3621613   0.1381207   0.0421068
   0.9488048   0.5328560   0.2809274  -0.7636204   1.2432450  -1.1183944
  -0.0673380   0.0598619  -0.2468952   1.1517183  -0.9084300  -0.9370053
  -0.4829265   0.8195377  -0.0471483  -0.1725044  -0.0196469  -0.2660692
  -0.5546433  -0.3112389  -0.6078256  -0.2464036  -1.0560144   0.9448636
   0.3090015   0.0393049  -0.0503061  -1.1302581   0.5142820  -0.3575423
   0.5092805  -0.0762089  -0.2379233   0.1784857  -0.0412493   0.1847083
   1.1657051  -0.4262214   0.6837380   0.8894269  -0.3993123   0.4997302
  -0.0146621  -0.0067328  -0.0307118   0.0542327  -0.6173719  -1.7012416
  -0.0931870   0.4219124   1.2088499  -0.2160114   0.2644691   0.0764429
  -2.0473099   0.3141969  -0.7765660  -0.4455453   0.5687625   0.7214810
  -0.0341064  -0.0619252  -0.0625404   0.3193139  -0.2684817  -0.0964493
  -0.6518143   1.2080015   0.2111845   0.1166024   0.0242433  -0.0901778
   0.8813478   0.7560008  -0.2984702  -0.6805355   1.1210859   0.2570177
   0.1672430   0.0107966  -0.0343800   0.1291149  -1.9310192   1.2263701
  -0.6897951   0.2235730   0.8539684   0.1963370  -0.1013140  -0.0039639
   0.3981728  -0.8914434  -0.1876732  -1.1998465   0.5655782   0.4704311
   0.0128518  -0.1722409  -0.2007812  -1.8025303   0.0012963   1.1362052
  -0.8852198   1.4310998   0.1106867   0.0796632  -0.1402204  -0.3500268
  -0.0909250  -0.0312725  -0.7995228  -0.4858780   1.1560110   0.2908091
   0.2582297   0.0539037  -0.0471861  -0.2091274   0.7193834  -0.9762266
  -1.0452602  -0.6837127   0.2450079   0.0518318  -0.1157885  -0.1051625
  -0.8868650   1.0161723   0.0655923   0.7302631   1.3913708   0.5543033
   0.1304523  -0.2730630   0.0075382  -0.3725899   1.3521683   0.4192412
   0.8254451  -1.3656993   0.3336828  -0.2747536   0.0500114   0.1736505
  -0.4985572   0.9401785  -0.0276546  -0.3397219  -0.2180140  -0.0379330
   0.1240027  -0.0455677   0.1107054  -0.8926568  -0.2088378  -0.4164982
  -0.5996462  -1.3921387  -0.8142914   0.1925169   0.0671347  -0.0615597
  -0.0577305   0.8866913   0.7141743  -0.4113406   0.0415588  -0.5687397
   0.0240300   0.2537227   0.1172380   0.2512513   0.5096483   0.1906878
  -0.3013797   1.6599290  -0.2611092   0.0138173  -0.2207438  -0.0294706
  -0.7145033   1.1365200   0.1075826  -1.0082829  -0.8657502   1.8207569
   0.0256944   0.2757257  -0.0229711   0.1505622   0.1436886  -1.0847228
   0.8355492  -0.0860842  -1.0141194  -0.0642560   0.3742967   0.2734191
  -0.2967085   1.4251682   2.5328074   0.5808454   0.1393964  -1.5304325
   0.2617127   0.0074810   0.1281237  -1.0844227  -0.7067876  -0.8527535
  -0.4349654   0.9864129   1.7737864  -0.0462185   0.0451172  -0.0402937
   0.4437923   0.3373374   0.7447969   0.7000176   0.9147627   0.9757050
  -0.1678788   0.0286700   0.1747980  -0.1241945  -0.6901843  -0.8348587
   0.3516686  -1.3074180   0.0590372   0.2576144  -0.0504683   0.1122224
  -0.3222934  -0.6835436  -1.6668396   0.9965772   0.7067173  -0.1274133
  -0.3073965   0.0766943   0.0605145  -0.3064087  -0.3916178   0.3561213
  -0.3845010  -1.0561707   0.0014192  -0.0708164  -0.5688993   0.1684903
   0.4401039  -0.4511942   0.2291335   0.2191194   0.0304613  -0.0631014
  -0.2152513  -0.1054932   0.0101661   0.1523319   0.1787935  -0.7090468
   0.3976193   0.3252966  -0.2148042   0.0999913  -0.0161574   0.1590578
   0.4782122   1.4288924  -1.5493840  -0.5893455  -1.8248893   0.7667536
  -0.0395160  -0.0645777  -0.1474083  -1.0326740  -1.6870756  -0.0268791
   0.6458724   1.5684370  -0.4615289   0.1870437   0.0078652  -0.0856443
   0.2605505  -0.5437942  -0.7512881   0.2719228  -1.4037808  -0.0329758
  -0.2584421   0.0187380  -0.2301310   1.2371565   1.2181914   0.7586063
   0.2108550  -0.9166583  -0.5094948   0.3439157   0.2074424   0.2056768
   0.0881707  -0.3051767  -0.9949479  -0.5023541   0.0264450   0.0768980
   0.1407121   0.0830247  -0.2011879  -0.1948981   0.1188421  -0.3511539
   1.8941845   0.0973372   0.2867418  -0.1277195  -0.0950933  -0.3256949
   0.1669269  -1.3055700  -0.5007704   0.0637538  -0.2518977  -1.5443368
  -0.0640395   0.1569328   0.2143589  -0.5187512   0.8878375  -0.8617738
   1.0745929  -0.2503099   1.0554298   0.1667570   0.1252985   0.0103355
  -0.0253428  -0.9396344  -0.6090757  -0.3669382   0.1504869   0.7408758
  -0.2959980   0.1317042   0.0410895  -1.0705594  -0.5199948   0.8755696
   0.5771334   0.0079985   0.4410216   0.0887856  -0.1037453   0.1421762
   0.7082028  -0.4202152   0.8121455  -0.0730028  -0.8730539   0.6724647
   0.3056032  -0.0769767  -0.0169545  -1.1789193   0.0878412  -1.1869162
   0.9617942   1.6436863  -0.8272175   0.1638926   0.3786246  -0.0866783
   0.3986484  -1.2945485   0.1686103  -0.4742536  -0.5976633  -1.4132774
   0.1301802  -0.0678199   0.1143297  -1.7024708   0.0031725   0.7845667
   0.1332590   0.2628182  -0.3588307  -0.2510252  -0.1468907   0.0552259
  -0.0091661   0.1858730  -0.0971310   0.7617400   0.2705185   0.7159584
  -0.0827097   0.0076321  -0.3526268  -0.9376486  -0.7196581   0.9643870
  -1.2705407   0.1658099   0.9261627   0.0356815   0.2761644  -0.0584692
  -1.2267014  -0.6838521   1.2713023  -0.8670508  -0.9497527   0.4082364
   0.0581808  -0.2163512  -0.2378358  -0.0759241   0.8582159   0.2730786
  -0.1668237   0.3325483   1.1988392   0.3180493   0.2199291   0.0268010
   0.8377535   1.0345335  -0.5993320   1.4537698  -1.3711305  -0.1449796
  -0.0434786  -0.2643580  -0.1322774   0.1810850   0.7728855  -0.5064516
  -1.5130975  -0.1191124  -1.6274612  -0.3903569   0.0902511  -0.0985798
  -1.6709433  -0.5368364   1.2363625  -0.0943305   0.4617178  -0.1211254
   0.1713780  -0.1646088   0.1973876  -0.7916915   0.4549736   0.2560743
   0.5519695   0.7177758  -0.2319627   0.2526580  -0.1895421   0.2307302
  -1.5665277   0.1608947  -0.0644218  -0.0323007   0.6466090   0.0143074
   0.0460911   0.0025634  -0.1807269  -0.8793777   0.6712605  -0.2385005
  -0.0618344  -0.0646364   0.0530806  -0.0647716   0.0514342  -0.0772910
   0.5280516   0.6098512   0.6751197   0.6884143   0.4176115  -0.6270541
  -0.2676359   0.3856403   0.2819022  -0.0876434   0.1763723  -0.1500904
  -0.6903465  -1.4008017  -0.9057164   0.0166883  -0.3315862   0.2662615
   0.2597785   0.9019032  -0.9272909   0.5557836  -0.0942711   1.3787066
  -0.1870566   0.1896841   0.1872540   0.2978213   0.8467572  -0.4934832
  -0.2235752   0.2833633   0.9453032   0.0283983   0.0542198  -0.1130004
   0.3950019   0.9775202  -1.1124866  -0.1549205  -0.2841454   0.1632037
  -0.3178139  -0.0489409  -0.0960174  -0.7317053   0.9509701  -0.0510614
   0.6350334  -0.3120107   0.1345938  -0.5285863  -0.2007750   0.0392279
  -0.1294720   0.4418674   1.3393673  -1.7181612  -0.3784533   0.7853834
  -0.1586078  -0.0545434  -0.2588516   0.4999872  -1.4747633   0.8878019
   0.3583840   0.2680429   0.8714495   0.1943031  -0.1928844   0.3459256
  -0.1923415  -0.5936436  -1.1528137   0.0108702  -0.9729361   0.7074507
  -0.0868082  -0.0378215  -0.3681507  -0.3708961   0.4915898  -0.4751734
   0.3061452  -1.0080012   1.6541133   0.2936146  -0.2433417  -0.2655851
  -0.8481696   0.3943695   1.2644696   0.3044010   1.8469906   1.3511240
  -0.2834117   0.0475795   0.1427005  -0.4892268   0.0866868   1.0710266
  -0.1017805   0.3843902  -0.5831094   0.0203567  -0.2188180  -0.0964122
   0.5120090   0.9636205  -0.3761383   0.2284185  -1.3908771   0.7449513
   0.2125714   0.0044891   0.0369962   0.2066628   0.1965582   1.0356764
   1.1188629  -1.4007134   0.6377665   0.0320897  -0.0648724   0.1427150
   0.1044854  -0.6863500  -1.8996052   0.6810309   0.1689901  -0.3266081
  -0.0980538   0.0396216   0.2881784   0.5091469  -0.3417674   0.9791343
  -0.3730234   1.0847659  -0.8350661   0.2408792   0.1644510   0.2050905
  -1.1476921   1.1737685  -0.1074658  -1.1629272   0.3716339  -0.1832759
   0.2465899   0.3170769  -0.2359865  -0.2333419   0.1729038  -0.3994240
  -0.5940852  -2.0074348  -1.0068029  -0.1948171   0.0015185   0.2130084
  -0.6445312   1.1714754   0.4650384  -1.9553664   0.4751464   0.5436126
  -0.0167450  -0.2106924   0.0825951  -0.3251781   0.6306614   0.5635697
   0.0653021  -0.8194903  -0.4358349  -0.0780904  -0.3224755   0.2183286
  -1.2715191   0.0387694   0.6295569  -0.7838089  -0.7407807  -0.5866947
   0.0868300   0.1436592   0.1592108   0.6101303  -0.9315400  -0.3139746
  -0.7593662   0.4493217   0.4421493  -0.0997890   0.0446550   0.2960686
   0.1369633  -0.8423778  -0.2575919   0.9348896   0.7795177  -0.0730366
  -0.0726268   0.1174397  -0.0678331   0.6268362  -0.8731415  -1.2153076
   0.2068778  -0.7279646  -0.8706508  -0.0257050  -0.0449430  -0.2795977
  -0.9232534   0.1791800  -0.6405872  -0.0945322  -0.7311386   0.7855783
  -0.2325471  -0.5190956  -0.4778775   1.1196206   0.9940476  -0.2387418
  -0.3135326  -0.8753344   0.0842070  -0.0456055   0.1986758   0.0983911
  -0.1510543  -0.0134957   0.6992115  -0.1887473   1.0520654   0.6286551
   0.2640713  -0.0825560  -0.1197597  -1.5581539   0.2133418  -0.5473137
   0.8991848  -0.6798484   1.1737434   0.2815080  -0.0738746   0.0019722
   0.7587982   0.5202301  -0.0320240   0.9945447   0.8337631  -0.7130594
  -0.0213138  -0.5542518  -0.5674927  -0.3189180   0.7679944   0.6700810
   1.0305221  -0.2805633   0.6752828  -0.1193321  -0.0911802   0.2452822
  -1.4622213  -0.4833093  -0.3793176   0.9501368   0.9440014  -0.2146733
   0.1885907  -0.0212014   0.0316439  -0.7307109  -2.0673070   1.7258836
   1.9360965   0.9792220   0.1192178  -0.0725071  -0.2884094   0.1074636
   0.1279635   1.0280927  -0.7004370  -0.3584743   2.1800256   1.1402583
   0.2884391  -0.0713858  -0.4873575   1.5540959   0.0274636   0.4653749
  -0.3342277   0.2672575  -0.3561303  -0.0400423  -0.0241521  -0.1322643
   0.5591375   1.0151573   0.6195803   0.4767669   0.1398251   0.5815404
   0.0236075   0.0287921   0.0875908   0.4554106  -0.4229052  -0.9035559
   0.1793820   0.0413860   0.6114471   0.0381413  -0.0323950   0.0532595
   0.3630376  -0.9525312  -0.6021389  -1.0899061  -1.1197224  -1.0085858
   0.0039301  -0.3559949   0.0170323   0.7283785  -0.3759429   1.4973037
   1.3728664  -1.0048501  -0.8434405   0.1755655   0.3033813  -0.1120142
  -0.7253731  -0.7484257   0.1114493  -0.5158454  -0.0786620   0.7569385
   0.0646810   0.0129998   0.2325134   0.0199019   0.5570821   0.1080779
   0.4181585  -0.6206058   0.0305888  -0.1284188  -0.0508139  -0.3013097
  -0.1678375  -0.5422865  -0.2600254  -0.4296803  -1.0814130  -0.1337448
  -0.2761559  -0.0336713   0.2639654   0.2548564   0.0790225  -1.0675321
   0.1688997  -1.0092484  -0.0337183   0.1871343   0.4542286   0.2563340
   0.2225240   0.3729269   0.7328341  -0.2503285  -0.5100267   1.0495569
  -0.0338906   0.0463916   0.1562204  -0.3262252   1.3850770   0.7602128
   1.3817594   0.2740573   0.9980746  -0.1083411  -0.1734067   0.2541194
  -0.8448553   0.3172028  -0.0728533   0.8369702  -0.8225409  -0.7883202
   0.1234774  -0.2879949  -0.0138979  -0.1149970   1.3716488  -0.2529078
  -0.1030871   0.0568304   0.1124424   0.3969073   0.2732298   0.1206732
  -1.0404792   0.4232608   0.2706551  -1.4021765  -0.4878533   0.9369716
  -0.0054171  -0.0426199   0.2608129   0.9597872  -0.4620211   0.6264263
   0.4522336   0.5583828   0.0583164  -0.0711407  -0.0108024   0.0092541
  -0.8468300   0.9022490  -0.4772723  -0.9001076  -0.7068608  -0.5176064
   0.0706665  -0.1186451  -0.4217980  -0.7469126   0.0701040   0.2010130
  -0.0137660  -0.6899723   1.6273656  -0.1639559  -0.1499674  -0.2144267
  -0.5466271   1.5557400  -0.4675086   0.3176925  -0.7596778   0.2889861
  -0.0032555   0.0321312  -0.2737451  -0.7227879  -0.8272837  -0.4910294
  -0.2724793   1.4755325   0.0372590  -0.2632879  -0.0479454   0.1556676
  -0.4410020  -0.0797385   0.0466030  -0.0486961   0.9422619   0.3516518
   0.0183313   0.0081466  -0.1341779  -0.6230148   0.4356694  -0.6279615
  -0.2742771   1.4263113   0.0737565   0.0093793  -0.1500717  -0.1374646
   0.1343422  -0.2897325   0.8779654   0.8413327   0.3844077  -1.6114116
  -0.0421796   0.0862579   0.1126503   1.5538310  -0.6429753   0.9403204
   1.1911045   0.1917059   0.1098971  -0.0414104   0.1551404  -0.3591221
   0.5854182   0.2941633   1.0865489  -0.8838359   0.1245104  -0.1025051
  -0.3848642   0.0427134  -0.1689827  -0.5857551  -0.9000431  -0.3618762
   0.0807899   0.5779267   0.0906053  -0.2741018   0.1823174   0.3985181
   0.4577509  -0.2246741   1.5261793   0.3537956  -0.3745918   0.1091634
   0.1715607   0.0515987   0.1617675  -0.1571522  -0.5600989   1.1612529
  -0.2644511  -0.0742001  -0.4099962   0.0338814  -0.1355236   0.1694038
  -1.0247208   0.0540010   0.7152961   1.0709792   0.8903465   0.9491419
   0.0464088   0.3852959  -0.1121265  -0.0421119   0.1490909  -0.0806915
  -0.1954838  -1.0452595  -0.1245511   0.1020756  -0.0509212  -0.1312971
  -0.0660723   1.1464803  -0.2104764   0.8857933  -0.3662964  -0.8979957
  -0.0984871   0.0207843  -0.0010914  -0.1543872   0.1880297   0.3922631
   0.8587551   0.2660212   0.2161944   0.1012163   0.2441923   0.0427530
   0.6376714  -0.9353700  -0.3137096  -0.2027405   0.1268930   0.7196700
   0.3949330  -0.4043830   0.2835002  -0.8697432   0.7925054  -0.6816430
   0.1978602   0.0736424  -0.7472913   0.0853742  -0.2173478  -0.1606836
   1.4944934  -0.8512484  -0.2985686   0.3666721  -1.3457477   0.1822156
  -0.2182515  -0.2426929   0.0773983   0.2144833  -0.5298834  -0.1505311
   1.0277275   0.0630391  -1.2258488   0.0384487   0.2033235  -0.1150839
   0.4299693  -0.5415756   0.9149354  -0.4669017  -0.3005508  -1.2349697
  -0.3758796   0.2127855  -0.3939320  -0.6426076  -0.8127978   0.5023734
  -1.0775775  -0.2241593  -0.4838922   0.0490300  -0.3525593   0.0423043
   0.4650421  -0.4630443  -0.4221556  -1.0392052  -1.2933774  -0.4067590
   0.0340300  -0.0225584  -0.0786207  -0.2866664  -1.1687905  -0.2127830
   1.7842965   1.3958304   1.5550250   0.1335936  -0.0516429   0.3781445
  -0.9987200   0.1593862   1.0019354   0.1131755   0.3976364  -1.0620035
   0.0837816  -0.0449898   0.1634213   0.5758909  -0.8491436   0.9997831
   0.7614995   0.2289802   0.5845307   0.0596973  -0.0605936  -0.0128449
  -0.6171701   0.7019650  -0.7744162   0.7920632  -0.2661268   0.6984050
  -0.0571255   0.2513600   0.4000454  -1.3618392  -1.4926977  -0.2392830
  -0.1095186  -0.3217622   1.1460911   0.0711506  -0.0557918   0.0107413
   1.6355667  -0.5346534  -0.7376657   0.1724255  -0.6284751   0.6089211
  -0.0165695  -0.3161919  -0.0015166  -0.3184020  -1.2417917  -1.4387288
  -0.2141225  -0.9557192  -0.2433306   0.1264680  -0.2872652  -0.0034706
  -1.5496379  -0.2218700  -0.9319769  -0.9410095   1.1386557   1.1349003
   0.0384960   0.1124880  -0.0587927  -0.5173838  -0.4284922   0.1102984
  -0.0972447   0.3704760  -0.5366956   0.1039982   0.3825148   0.1301316
   0.3675743  -0.7405459  -0.7110893  -0.2910488  -0.3719984  -0.4023466
  -0.1042308  -0.0280768  -0.0664781  -0.4164749  -0.1847117   0.5016645
   0.7570623   0.2993912  -0.0736772   0.0849447   0.5617825   0.0106967
  -0.2119375   0.9790128   1.3779975   1.2952026   1.1184219  -0.3694684
  -0.1048317  -0.4106605   0.2017104  -0.8667164   0.2322271  -0.3285426
  -1.4397787  -0.5936817   0.2578183   0.0294208   0.0951459  -0.3791417
   0.7315007  -0.7417178   0.6311702  -0.2666728  -0.8252984  -0.9668429
  -0.2231285  -0.1039004   0.2033304  -1.0866346   0.8229803  -0.5932738
   2.3433030  -0.6049064  -0.1066002  -0.0857102   0.1999969  -0.0559589
   0.1047249   0.0324716  -0.1378348  -0.9273314   0.8441050   1.1771766
  -0.2376292  -0.3924251   0.1030763   1.0003806  -0.5511688  -0.2553428
   0.9506348   0.2284370   0.1082584  -0.0669265  -0.0920463  -0.0356913
  -0.2045945   1.0717418  -0.5193532   0.2947285   0.2163141   1.3018838
   0.3166384   0.0897467   0.3509032  -0.8863704  -1.3891664  -1.1885343
   1.2006556   0.2535396  -0.6715333   0.5204886  -0.1467167   0.0396302
  -0.8780751   1.7087663   0.8369620  -1.7212968   0.2979439  -1.3245294
   0.1218436  -0.3036317   0.0722819   0.3089736   0.5045087   0.0545947
   0.5695294  -1.1525244  -0.0696843   0.0330330  -0.1330337  -0.2456884
  -0.4246301   1.0752182  -1.4708844   0.1959058  -0.7002574   0.9608361
  -0.2495776  -0.1106159   0.1619813  -0.3584609   0.1032065  -0.6055419
   0.2947557   0.9585022  -0.2001780  -0.2622137   0.0137461   0.1157288
  -1.6168956   0.1474785  -0.3850133   1.2217197  -1.5055088  -0.2602954
   0.0031972  -0.1025309  -0.1094848  -0.1777315   0.3282956  -0.8434145
  -0.0131425   0.6758932  -0.0390964   0.1252049  -0.0031989  -0.0329012
   1.6499039   1.3856072  -1.6374168   0.7080670   0.0722040   1.1129154
  -0.3018371  -0.1900761  -0.0870455   0.3252051   0.0487932  -0.7614338
   0.3221783  -0.6936065  -0.6216091   0.2001101   0.3152893   0.1722114
  -1.1533839  -1.1286464  -0.7361425  -1.1114764  -0.1915909   0.4105812
  -0.0606277   0.2656337   0.0197121   0.0165345  -0.6353003   0.4361990
   0.5913061  -1.5398074   0.1895150   0.1321461  -0.1232144   0.2007699
   0.6683437   0.2625981  -0.6182324  -1.1515559   1.2960556  -0.1265507
  -0.2266670  -0.0895149   0.0400005   0.0661687  -0.7815660  -1.5046005
   0.8628905  -0.8501280   1.2778360   0.0032819   0.0899175  -0.2111888
   0.6186508  -1.4933542   0.1994159   0.9321040   0.9609432  -0.0700536
   0.4425507   0.0243652  -0.1330572  -0.0631945  -2.3917761   1.8405932
   0.3688233  -0.0627397  -0.7203224  -0.1626489  -0.1581899   0.0086279
   0.3961472   0.7774552   0.7088148   0.8180581   0.3775469  -0.9162852
  -0.0686561   0.3149416  -0.3684619  -0.5998946  -0.0058961   0.9924358
   0.8008029   0.6636523  -0.5062011  -0.2498963  -0.0128194  -0.0008342
  -0.0502067   0.1602113  -0.4422752   0.4370403  -0.0089028   0.8673266
   0.3399453  -0.0505111   0.0270377  -1.5502344   0.4420034   0.9607338
   0.3659826   0.5423223  -0.3928683   0.2379572  -0.0361061   0.2660748
  -1.1225545   0.2888308   0.8326111   0.7931009  -0.4261424  -0.1787818
   0.2220461  -0.1155562  -0.1268276   0.2560163  -0.8027477   1.3296651
  -0.5834950   0.6810204   0.5677868   0.1823257  -0.3084019  -0.0298162
   1.1731390   0.6359140   0.7486523  -0.7405285  -0.5558267   0.1123013
  -0.1737381   0.0982187   0.0201932   1.3758675   0.8763783  -0.8644041
  -0.0473210   0.8808780  -1.1799877   0.0511858   0.2603647  -0.2978432
  -0.8772109   0.4197249  -0.0341319  -0.1918014  -0.8173343  -0.0395284
  -0.1072791  -0.2571645  -0.1959883  -1.1267499   0.8058724   0.1993854
   0.6137602  -0.3052110   0.6515260  -0.0660333  -0.0093386   0.2113695
   0.8197727   0.9099725  -1.5485680  -1.6610808  -0.1372783   0.7405876
  -0.3057174  -0.2038542   0.1445833  -0.6143035  -0.8090489   0.0172054
  -0.7725528   1.0194100  -0.4224450  -0.1142581  -0.2919873  -0.1599872
  -0.2942950   0.6881558  -0.0635486   1.3765347  -0.1753187   0.9178424
  -0.1751993  -0.0413210  -0.1341527   1.5438433   1.0434402  -0.2139240
   1.5643655  -0.7561250  -0.3126485   0.0161512   0.1156521  -0.1791214
  -0.1030685  -0.7012504   0.9280643   1.1272299   0.9845421  -0.0921962
   0.0516229   0.0667191  -0.2164161  -0.1174194   0.4134676   0.7237551
  -2.2327929   0.3479661   0.0949436  -0.2473455   0.0692001  -0.0475018
   0.1217080  -0.0028466  -1.2681764  -0.1909736  -0.4077761  -0.9244387
   0.0505735  -0.0162225   0.1002707  -0.0524534  -1.3332689  -0.7344475
  -0.3288986   0.0963406   0.2177509   0.0609962  -0.0921771   0.1788866
  -0.4283171   0.7098718  -1.3291585   0.3716589  -0.3583086  -1.1707257
   0.4071718  -0.0639173  -0.0248490   1.5487068  -0.0994712  -0.1316414
   0.7855830   1.4514245  -1.4641798   0.1351269  -0.1094277   0.2515034
  -1.2195022   0.0188211   0.2097762   0.8044578  -0.4616165  -0.2904814
   0.2899531  -0.0577661  -0.2552557  -0.1227598   1.8071856  -1.1380132
   0.7242318  -0.3073890  -0.8575566  -0.1701797  -0.1834020   0.0770145
   0.9634196  -0.0662016  -0.2642212   0.1162625  -1.0302218   0.1941140
   0.0118268   0.0884653  -0.0651118   0.9444716   1.0372041   0.3024071
   0.4057029   1.3528874  -1.6855816   0.3144169   0.1466299  -0.0819042
   0.0453459  -0.1155067  -0.6589156   0.3848116   0.5631112   0.1068536
  -0.0255367   0.0735109   0.1276117  -1.0315046  -0.8653313   0.9101143
   0.7773498   1.0365355   0.2201409   0.0218620   0.1550065   0.0343547
  -0.0066438  -1.4179447   0.3486390  -0.0991551  -0.9850411   0.3586937
  -0.1968693  -0.0916295   0.1654521  -1.3090627  -1.1235073  -0.8095350
   0.7707423   0.6140127   0.6516588  -0.0292112  -0.1341465   0.2089699
   1.2585049  -0.9859298   1.0511053  -1.1293738  -0.7383937  -0.1428959
   0.3620514   0.0131967  -0.1478106  -0.9145285   0.3792700  -0.8323244
  -0.8481987  -0.0120312  -0.1294515   0.3483139  -0.2980464   0.0878088
  -0.8339158   1.5445358   0.5581009  -0.7652440   0.2931817  -0.1574801
  -0.2684228  -0.1345096   0.1842430   0.6559707   0.0365739  -0.3939059
  -1.6077570  -0.6251521   1.2473139  -0.2008573  -0.1984912  -0.1088224
   1.3416007  -0.4345161   0.4764085  -1.2258384   1.3266200   0.5869261
   0.1443132  -0.1113786  -0.2164477   0.9043993  -1.0623978   1.0673501
   0.5067787  -0.2372867   1.9979624   0.0692750  -0.2458317   0.0981035
  -1.0445372  -0.6468396  -0.2842304  -1.2059011   0.3143377   0.2376751
   0.1593394   0.0609183  -0.4570733   0.2885928   1.0230367  -0.1435413
   1.2660416   0.0344364  -0.2076116   0.1350125  -0.0494593   0.2982252
  -0.2567594   0.1331800   1.3490554  -0.9492697   0.3788058  -0.8996027
   0.4084096   0.1688362  -0.1819205   0.6411141   0.6965181  -1.3711488
   0.6660129   0.6303177   1.1503580  -0.0200190   0.2916602   0.1950274
  -0.5135151   0.0792531  -0.7632982   0.7470849  -0.0420218  -1.0032856
   0.1802604  -0.2118360   0.0537133  -0.1254863  -1.0366428   0.1742279
  -0.2799220   0.7688336  -0.9747881   0.3144575  -0.0911571   0.1905186
  -0.9377304  -0.2542106   0.5561036  -0.0799523  -0.4804350   1.5579807
   0.1175851  -0.0427967   0.1795459   1.9765201   2.0391517   0.6572694
  -1.2983768  -0.7550409  -0.8854947  -0.0394746   0.1112291  -0.0236971
  -0.8159786  -0.3669658   0.6116166   0.4356034   0.5329227  -0.6707149
  -0.2226570  -0.0550321   0.2604394  -0.4546885  -0.6446999  -0.4808441
  -1.3425251   0.4276010  -0.8014649   0.3303419  -0.0525427   0.2063357
   0.0777423   0.0218515   0.1903589   1.5022547  -1.1186954  -0.5550562
  -0.1096372  -0.3068907  -0.0790662  -1.3788271   1.4257382  -1.0274950
   0.0130095  -0.6736169   0.4166619   0.0971687   0.2296193   0.0149620
   0.4791225   0.0234426   0.5557833   0.7296035   1.0771842  -0.3306744
  -0.1053078   0.1476050   0.0119615  -0.8960487  -0.3822137   0.2657208
   0.6066183  -0.2393326  -0.2235040   0.0187081  -0.1926491   0.0901145
  -1.5689241  -1.8016320  -0.2039071   0.1949177   1.5204601  -0.3309559
  -0.1206437  -0.1946726   0.0513865   0.2021454  -0.3469662   1.9572694
  -0.1298480   0.3786811   0.5930957  -0.0735812  -0.1382074  -0.4006080
  -0.1613697  -1.3244338   0.2267377   0.1978649   1.2165009   0.9310993
   0.0613599   0.2510060   0.1290363   0.1889510  -1.4752234  -0.0747144
  -0.6400394  -0.3274524   0.6392301   0.1598660  -0.1447516   0.2867476
  -1.6213874   0.9756808  -0.2951248  -0.4347206   0.1357290  -1.4271219
  -0.2611283  -0.2474573   0.0172269   0.1767399  -1.2064252  -0.1736713
  -0.5781136  -0.9665695  -0.3947445   0.1721910  -0.1901958   0.1999751
  -0.4146194   0.6447861  -1.3181477  -0.8165190   0.1373862  -0.8227254
   0.1450170  -0.0184662   0.1154602   0.3933069  -0.9392118   0.9718112
  -0.6484384   1.0044407  -0.6929419   0.0506437   0.0080743   0.1887247
   2.0171118  -0.4536149  -1.0958281   0.9082962  -0.9376867  -0.1945163
  -0.3235311   0.0316968   0.0739120   0.2919008  -1.3736285   0.2553501
   1.7484568   0.0273013   0.2395425   0.0586830   0.0340612   0.4147961
  -0.4413894  -0.7633590  -0.1432701   0.0860367   0.0346570   1.5305964
  -0.0953412  -0.5224769   0.0465043  -1.2517114  -0.4517602  -0.0733394
  -0.6303431  -0.4836278   0.3712949   0.0458787  -0.0809629  -0.0218068
  -0.5101303   0.8734072  -0.8443415  -0.9831738  -1.0077416  -1.1729424
   0.1075066   0.0405448  -0.0969360  -0.3671790  -0.6874884   1.0276126
  -0.3835676  -0.9542034  -0.4706385   0.1560968   0.2512152  -0.0099147
   0.0705963   0.2293117   0.0521835  -0.7638201   1.0812794   0.6248473
  -0.1043071  -0.0393952   0.0284777   0.8972310   1.1732180  -1.3366053
   0.4342150   0.3849021  -1.1894563  -0.0275327   0.4194260   0.2475045
   0.0572704  -1.1820247   1.2200060  -0.8976748   0.9210792  -0.1247655
   0.0092257  -0.0403019  -0.0954947   0.4273437   0.3280815   1.2679809
  -0.5172749  -0.3256080  -0.0440542   0.1790049  -0.1627483  -0.3391278
   0.3802397   0.5368720  -0.0589992  -0.1444681  -0.0465154   0.4992769
  -0.2215885   0.0834511  -0.0853004  -0.3907064  -1.2572505   0.0769463
  -1.5497087   1.3970715   0.5677098  -0.2216877   0.4204662  -0.0974591
   0.5898091   2.1338353  -0.9911705  -0.0881936  -0.8659009   1.0617708
   0.2191422  -0.1658912   0.0814568   0.1673980  -0.9362856  -0.4827343
   1.1279430  -0.1173449   0.4824034  -0.0805856   0.0288064   0.2914351
   0.1567483  -0.8615111   0.5427784  -0.2987982   0.1440349   0.1073450
  -0.1825291  -0.1643647   0.2232557   1.4038180  -0.5868233   0.1304294
   1.5182168   0.9476213  -1.1349081   0.2396435  -0.1028944   0.1846999
   0.1129435  -0.3941297  -0.5963173   0.1327112  -1.0389990   0.5456337
   0.1080018   0.2269682  -0.2350859  -0.4650000  -0.3966167  -0.6804853
  -1.0719563   1.7354205   0.3448132  -0.2952622  -0.0133536  -0.2717701
   0.4146898   0.6718554   2.0114517   0.5016277   0.4399151   0.4431235
  -0.0544928   0.0955237  -0.0843564   1.7838248  -1.8587544  -0.1768203
  -1.9113301  -0.0785241   0.6625538   0.0155549  -0.0403329   0.0107681
  -0.3855260   0.1422994   0.4642579   0.4798146  -0.7874877  -0.1462374
   0.5139996   0.5116574  -0.2089301   0.7527905  -0.5133157   1.2714584
   1.3248340  -0.3375061   0.5010328  -0.0129665  -0.2369195   0.2507010
   0.3852682   0.0400305   1.3431338  -0.5525814  -0.1570358  -0.6717343
   0.1645314  -0.1449765  -0.0949618  -0.7484832   0.3148556  -0.6232244
  -1.4992982   0.2865122   0.2442554   0.0109831   0.1771726   0.0360802
   0.1839831  -0.2500739   0.8138465   0.2056239  -0.1203896   0.3405344
   0.0301659   0.2929859  -0.0126931   0.3766122  -0.0837559  -1.4095938
  -0.0849196  -0.1698431  -0.4484271  -0.1582270   0.0253908  -0.1580196
  -0.6130067   0.0234880   1.6492746  -0.8832467  -0.1252162   0.9746895
  -0.1051453  -0.2197449   0.1354941  -0.5016279   1.2173095   1.3977537
  -0.4433097  -0.0868946  -0.4107746  -0.4242079  -0.1150599  -0.0267942
   0.8846522   1.2692782   1.3481903   0.4426083  -0.7968637  -0.5382587
   0.1768270  -0.1008311  -0.0943833  -1.0189145   1.0657884  -1.4732653
   0.3619403  -0.5800613  -0.3955120  -0.0671683   0.1580483   0.4140325
   0.1005780   0.8384222  -1.6211128  -0.6853178  -0.3501639  -0.9627439
   0.2687807  -0.2123325   0.1686818  -0.6930510  -0.4752100  -0.1013528
   0.2879371   0.1915629   0.4992063  -0.0639258  -0.0129955  -0.4864112
  -0.3674936   1.1469202  -0.6983811   1.0182053   1.7997636   0.1674060
  -0.1737274   0.0148070   0.2380592   0.0498696  -1.4555492  -0.6848913
   1.5558758   1.6198218   1.4385097   0.1821644  -0.1172543  -0.2652615
  -1.9721825  -0.0108538   0.8133494   0.7775658   0.3276396  -1.9296809
   0.2509177   0.3341598   0.1613316   0.1771728  -1.0008284   0.7594116
  -0.5386575  -0.3618861   0.8877212   0.0455282  -0.1969540  -0.0540718
  -0.2586074  -0.3340914   0.9957789  -0.1034133   0.1437497  -0.2587847
  -0.3236384   0.4231982  -0.0211492  -0.3368728   0.0548230  -0.8760407
  -0.5918725   1.2453675   0.5842874   0.1430876  -0.2141052   0.0267539
   0.9925463   0.1897729   0.0345598  -0.0227022  -0.1220529   1.0851047
   0.3879310  -0.0639182  -0.3023039   0.3940842  -0.8187054   1.2805425
  -0.3334943  -0.1223405  -1.2941991   0.3168718   0.0229681   0.0528785
   0.7887503   0.5727192   0.8587837   0.1236486  -0.2741721   0.1038629
  -0.0567837  -0.1771994  -0.2180890  -1.3868226  -1.6413988   0.6854566
  -0.4699226  -0.3165267   0.3390282   0.1764129   0.2749586   0.3953504
   0.2436217  -0.8501503  -0.5376884   0.4644451   0.8995935   0.5817077
   0.2080123   0.1384613  -0.0870813  -0.1609638   0.1906044  -0.8321866
   0.0777010  -1.2063104  -0.6718670   0.1074716   0.4520805   0.1993908
  -1.3442147  -0.4262389  -1.1569687   2.1776867  -0.6511737   1.3618388
   0.1275578   0.0824509   0.1655112  -0.4964676   0.5332912   0.6148267
  -0.0157417   0.8742222  -0.4574620  -0.0376803  -0.3590814  -0.1262879
  -0.8396416   0.0442763   0.1517335  -1.3414998  -0.7267628   0.2000837
   0.1986990  -0.1906971   0.2404152  -1.0427710  -0.3950926  -0.3444743
   0.5313653  -0.9012979   2.0466247   0.1435611   0.0551102  -0.0322798
  -1.0834160  -0.4926278   0.1506905  -0.1948547  -0.0234408   0.6595518
  -0.3037102  -0.1666065   0.4528068   0.0191733   0.4814381   0.8392153
   0.2838471   0.8993526  -1.0502220  -0.0083661  -0.0267773  -0.2499458
  -0.3601158  -0.2441204  -0.3082782   0.7480828   0.7246089   0.3296351
   0.1155218  -0.2412307   0.0931625   1.1821249   0.6246594   1.0198286
   0.3578756  -0.1692574   0.5516830  -0.1022849  -0.1481725   0.0427765
  -1.1818887   1.0079083  -0.8139206   1.0406191  -0.4674186  -0.3152316
   0.2963234   0.0619101  -0.0068486   0.1241355  -3.0080969   0.0715515
   0.0984686   0.0502250   0.8853233   0.2174666  -0.3283781   0.1444675
   1.2084341   0.8952822  -0.0907545   0.7131978   0.2635371   0.1561803
  -0.0120237  -0.1568441  -0.1661903   0.7561324  -0.8449522  -1.4680781
   0.1396839  -0.6243171   0.5843596   0.1011405   0.3621995  -0.2794105
  -0.6836931  -0.0161085   0.3561213  -0.4792612   0.3176516   0.3829684
  -0.0961426  -0.2019755   0.1102156  -0.3079825   0.2998270   0.0418282
  -0.0398122   0.1305488  -0.5015984   0.0889950  -0.3625322   0.1208088
  -0.2479596   2.2337427  -0.9056954  -0.0130294  -0.9451375   0.7423915
  -0.0292558  -0.2964103  -0.0752025  -0.5845569  -1.3452985   0.9406456
  -0.3221143  -0.7337720   0.2248952  -0.0029196   0.3868460   0.2549867
  -0.3498484   0.3573055   0.9215811  -0.9136803   0.5921403  -0.6494145
  -0.1654791   0.2563539   0.0787078   0.6547029  -0.4843569  -0.7798819
  -1.0025021  -0.9704152  -1.5697286   0.3668038   0.0915783  -0.0165981
  -1.4027294   1.1820494  -0.0435954  -0.9141956   0.8382588   0.0314101
   0.2590321   0.2037184  -0.0788804   0.0433618  -0.2517855  -0.4441051
  -0.9826488  -0.4240368   0.0455892   0.2376895   0.2068154  -0.1142047
   0.3771383   0.7341695   0.0054654   0.1482460   0.9239444   2.4819059
  -0.1631734  -0.0238845   0.3803060  -0.4577786  -0.0007098  -0.4543410
   0.3805091   0.4465697  -0.5959767   0.0001691  -0.1059761   0.1452885
  -0.1301614   0.2135780  -0.1513729   0.9830248   0.3649705   1.1240324
  -0.0996426   0.2373231   0.0540011  -0.2387570  -0.5434859  -0.5424796
  -0.7333036   0.2102024  -0.1476352  -0.1574745  -0.0796277   0.0711256
   0.9599403   0.0476141   0.4148031   1.0818256   0.6126365   0.2440084
  -0.0251705  -0.4079544   0.0983885   1.1011182  -0.2417856  -0.6319889
  -0.4491053  -0.1043553  -1.4018619   0.0536974   0.0463646   0.0298325
   0.5532854   0.7050074   0.4904455   0.0379309  -1.8840981   0.0768372
   0.0385431   0.5383984  -0.2792364   0.0129756   0.8781714  -0.0014306
   0.5273041  -0.3124893   1.7817481  -0.1482667  -0.0030936   0.1460911
   0.8937080  -0.8575320   0.5024095   1.0572678   0.0359704  -2.8367817
  -0.2680893   0.0988416   0.1528264   1.3942509  -1.1987399   0.2534975
  -2.4367437   1.2401013   0.0752483   0.0683752   0.2361763   0.0744547
  -0.0837208  -0.7737207  -0.4007899  -0.6279393   0.8995405   1.0253685
  -0.2568105  -0.2374987   0.1985991   1.2878398   0.8534805   0.1809056
   0.3212561  -1.1451579   0.0125571   0.2679448  -0.2364714  -0.1282268
  -1.0702873   0.2030629  -0.1186790  -0.3110014  -1.5248473   0.0220093
   0.3586892  -0.0441605   0.0238837  -0.6140507   0.5264366   1.0988497
   0.2874505   0.6562279  -1.2777871  -0.1286238  -0.0588301  -0.1469021
   1.3190823  -0.6587720  -1.0078056   0.3747467   0.8420545   0.9211818
   0.1546129   0.0861410   0.1880241   1.3674664  -0.3455662  -0.7824402
   0.9662210   0.5363976   0.0828520  -0.2493057   0.2709429   0.0754508
   0.1745164   0.9759740   0.2074856  -0.0423581   1.9041140   0.1774111
  -0.1774818   0.0194898   0.2362697  -1.8454235  -0.8067630   0.4927655
  -0.0464773  -0.7830106  -1.1247147  -0.1969812  -0.2746248  -0.1869693
  -0.1793141  -0.0269302  -1.3081192  -0.5618229  -0.8645942   1.0886153
   0.1492538   0.0930869  -0.0232776  -0.5747404   0.6334479   0.2481413
   0.0089664   2.6866701   2.6568601   0.0016621  -0.4096191  -0.1761106
  -0.3199583   0.3381734   1.0523748   0.0921483  -0.1070224   1.0308740
   0.2548209   0.2250362  -0.0185043   0.0769168   0.6446805   0.8202607
  -0.4811100   0.6916267  -0.2164529   0.0263278  -0.3521417   0.1520219
  -0.7970338   0.8207265   0.7088702  -0.7386233  -1.8080984  -0.6366233
   0.3045559   0.0992799  -0.1970734   0.9157541   1.1683731   0.2160616
  -0.2682882   0.5649625  -0.6357762   0.0938992  -0.1211816   0.1234226
  -0.1976501  -2.1047444   0.0314344   1.1944733   0.2140710   0.2475087
  -0.0893223   0.0224046  -0.0882316  -0.3159789   1.6163822   0.6881639
   0.0545187   0.3995839  -0.2716439   0.3746222   0.2315434   0.0682655
  -0.6610710   0.4112230   0.4222039   0.6121491   0.0633181  -0.6511799
   0.0365802   0.4382356   0.1643950  -0.7449455  -0.4505556   0.0349969
  -0.6363841   0.3354550   0.6057796  -0.0323693   0.1102918   0.1489418
   0.0533469   0.1698664  -0.2680754  -0.8225651   0.3217532   0.4277575
   0.0189535   0.0667668   0.0250239   0.2861477  -0.5781237   0.4156562
   0.0747355   0.5116889  -1.0959967  -0.2261055  -0.1681039   0.6433110
   0.4907583   0.0055825  -0.4957798   0.2892503  -0.6950544   0.4080905
  -0.0614353   0.2255998   0.1492288   0.0951336   0.1939702  -0.1661273
  -0.0293979  -0.9104764  -0.0408674  -0.0979077   0.0345342  -0.1608045
   0.8336272  -0.2332446   0.4018346   0.4877537   1.0123030  -2.3111496
   0.1760068  -0.1625125   0.1967610  -0.0379166  -0.4561804   0.9239296
   0.4485253   1.7280127   0.4443266  -0.1021311   0.0420211  -0.1769334
  -0.2676168   0.6045938  -1.9164155  -0.2091766  -0.4562869  -0.7034560
   0.0791618  -0.1424439   0.0681632   0.1980322   0.9792528  -0.2123173
   1.5637168  -0.4698623   0.0243353   0.1135112   0.1807058   0.0553725
  -0.8375484  -0.8654223  -0.1557180   0.4289878  -0.3938842   0.2125381
   0.0131907  -0.0561614  -0.2535886   0.1468100  -0.3825740  -0.8527790
   0.4735901   0.3270437  -0.3058723   0.0246043   0.1541318   0.3114885
   0.5729326  -0.0802780  -1.0841707   0.2121925   1.1015009   0.5836115
  -0.1642628  -0.0835327   0.0946293   0.5525195  -0.6924987  -0.1396539
  -0.0830590   1.2716893  -0.2715391  -0.0756921  -0.2263793  -0.1246346
  -1.0630803   0.1020599  -0.7393103   1.5649455  -0.0260312   0.1611234
  -0.2393902   0.0460847  -0.1370304  -0.7424101  -0.3445313   0.4079855
   0.1979313   0.5087239  -0.7860340   0.1017799  -0.1060482  -0.2112655
  -0.5168456   1.1596196  -1.9428233  -1.0522932  -0.9451717   0.0362429
   0.2202643  -0.1082654   0.1874389   0.2130786  -0.2399365   0.1476404
  -0.6439418   0.6601794  -1.5397116   0.0458801   0.2255658   0.0797760
   0.9719028   0.1365452  -0.0372528   1.3695319  -0.1753420  -0.5859622
  -0.0642885  -0.1592033   0.3142437   0.3907585   0.1431755   0.4047504
  -0.4398915   0.2405956  -0.8312319  -0.1557304   0.2333789  -0.1881138
  -0.2764044  -0.7275758  -0.1176393   0.0844107  -0.0578338  -1.3930482
  -0.2872624   0.3919004   0.1873776   0.0928745   2.6061237   1.8850015
  -0.8034942  -2.3226480   0.5640895   0.3461558   0.1456646  -0.1101359
  -0.1390004   0.9092558   0.0416746  -0.6768612  -0.2534268  -0.4873916
  -0.3039515   0.0783298  -0.2781521  -0.2296319  -0.4021632  -0.4833080
  -0.3039511  -0.9637480  -0.3814384   0.0452432  -0.2990209  -0.1373262
  -0.8983727   0.5260381  -0.4875887   1.9642441   0.0571199  -0.4257593
   0.2331387   0.0177439  -0.1108184  -0.0103477  -0.2426413  -0.2595373
   0.8184812  -0.5434510  -0.0299974  -0.0849978   0.1537435   0.2536245
  -0.9339815  -0.0846548   0.0775469   0.3098860  -0.5597257   1.2922387
  -0.4617306   0.2782028   0.0200321   0.2934375  -0.1831711  -0.6139078
  -0.5273646  -0.4879729  -0.0677550   0.0858458   0.0655153  -0.1659185
  -0.8321220   0.6618580   0.0499095  -0.1107111   0.1419179   0.8779711
  -0.0220634  -0.0626886  -0.0236840  -1.1807120  -0.4064654   0.9977096
   0.8644415  -0.8405950   0.4898813  -0.2670605  -0.0218103  -0.0469918
   0.3730540  -0.1881098  -0.7982371  -0.0244305   0.1386732   0.4894889
   0.1272642   0.3167839  -0.1692781  -1.2834173   0.8164635   0.4225128
   0.9209448   0.3056087   0.9146662  -0.1458827  -0.0438455   0.0180430
   0.3304812  -0.1583875  -0.3274451   0.6027011   0.9492215  -0.4671224
   0.0799470   0.0411389  -0.2472787   1.5620619  -0.6649291  -0.8003621
   0.9586866   0.1686801  -0.9963765  -0.1683206   0.3742104  -0.1337126
  -0.4337709   0.9187382  -1.6231744  -1.6358672   0.8931156  -0.1829734
   0.0829661  -0.0501874  -0.1820827  -0.5933188   0.2040203  -0.3271914
   0.5044943   0.3202114  -0.8415368   0.2698085   0.1737300  -0.3248518
  -0.1380085   1.4252303   0.0123038  -0.1973643   0.7952170   0.9491728
  -0.1763523   0.4244046   0.0755952  -0.9814050   0.0645037   1.5998890
   0.2222273   0.8295180   1.2799668  -0.3433765  -0.1367228   0.2705089
   0.3236316  -1.2575302  -0.2760521  -0.7199715   1.2934147   0.6244581
  -0.0919446   0.2909956  -0.0749145   1.3028609   0.3351890   0.1903642
   0.9151276   1.1754954   1.5111797  -0.6429405  -0.3421793  -0.0923239
   0.9628489   0.1891475  -0.2058488   0.0772104   1.1207217   0.3292757
  -0.3417596   0.3197648   0.2006672  -0.6079780   0.1998139   0.5484215
   0.4671389   0.2259113  -1.3963608  -0.0238167   0.1318584  -0.1237478
  -0.4398991  -1.3336489  -0.7772037   0.5673827   0.8367895  -0.1182260
   0.3654102  -0.0453212   0.0983338   0.1106550   0.5938462   0.5803626
   0.0991250  -0.2837402   0.5656446   0.2814358   0.1097531   0.0087251
  -1.3174592  -0.4502112   0.2717908  -0.0698538   0.9276950  -0.1470122
   0.3040773   0.3712247   0.0970543   0.9551160  -0.0987650   0.5065599
  -0.9936814  -0.8110311   0.3201932   0.3380776  -0.2284940  -0.1124580
  -0.9910774  -0.7013993   0.0807625   0.1489843  -0.2420199  -1.5007464
   0.1632791  -0.1079968  -0.1115356  -0.5956450  -1.8225456   0.3204941
   0.2599683   0.6203179  -0.7841365   0.1044092  -0.0285932  -0.1621118
   0.1308025   0.3553529  -0.2877026   0.6533515   0.0409908  -0.7920147
  -0.3729806  -0.1115529   0.0049564  -0.4096168  -0.8347240  -0.9299526
  -0.6856093   0.2942623  -0.2010933   0.1011763   0.1263685   0.0252802
   0.5100125  -0.6034408   0.7563640   0.1427169   1.6421373  -0.1330307
   0.0752995  -0.0848383   0.0253081  -0.3523269  -0.9364811  -0.0065153
   1.2304827  -0.6351904   0.2152288  -0.1118829  -0.0380501   0.0225879
   0.4366106  -0.9766155   0.4411675   0.5692847  -0.9644407  -1.3231717
  -0.1470145  -0.1174344   0.5916609  -0.4765154   0.0956606   2.6660616
  -1.6160926   0.5096160  -0.5889160  -0.0503020  -0.1502099   0.1997943
   0.3122001  -1.2058505   1.1730334   1.7071347   0.6820285   0.2715491
   0.0651774  -0.1248089  -0.3357974   0.1167309  -0.2247229  -0.1618274
   1.8221320  -0.4648441   1.4784837   0.1764968   0.1420211   0.0207107
   0.5425312   0.5446702   0.4514399  -0.4911494  -0.2700273  -0.2829922
   0.0911166   0.0595399   0.0203080   0.1702485  -0.4269685  -0.7474700
  -0.0389779  -0.2172145   0.3531100  -0.0525523   0.0574734   0.3204710
  -1.1850655   0.4199833   0.3128906   0.5237242   0.6235734   1.7959651
  -0.3198006  -0.3090453  -0.0764497   0.6100016   0.6206195  -1.3654038
   0.8834675   0.1732116   1.5817634   0.2907585   0.0498275   0.2852176
   0.9534909  -0.3092864   1.5065186  -0.6537287   0.5147923   0.7094585
   0.1826421   0.0269041   0.0931136   0.0738881   0.6593226   0.0183124
   0.6476978  -0.4466377   0.0122090  -0.0432025  -0.2473485  -0.2212694
  -0.1563176   0.7254289   0.0147386  -0.5019201  -1.0286815   1.5127357
  -0.0761363   0.2620610   0.0679231   0.1010620  -0.4878867  -0.5846178
  -0.5732337  -1.4721916   1.3847603   0.0349386   0.0499139  -0.3612822
  -0.1618292  -0.3895905  -0.0030661  -0.0378605  -0.4837245  -0.2220807
  -0.0154950  -0.0710273   0.0010697   0.4614143   0.7681761  -0.7301424
  -1.5081899  -0.8350118  -1.0591142   0.1355550  -0.0317065  -0.0938862
   0.9183511  -0.0656447  -0.9949304   1.3708025   1.7742243   0.7108883
   0.0448687  -0.2580131   0.1029570   0.1460752   0.0855550   0.4956441
  -0.3076135   0.4315983  -0.0963362  -0.1262330  -0.2184119  -0.0274754
  -2.1457305   0.6955328  -0.0364996  -0.3076589  -0.0438286  -0.5854006
   0.0490052  -0.0558297   0.1619038  -1.5118252   0.4844964  -0.2266487
   0.3931871  -0.0901241  -0.1585179  -0.0858966  -0.0507854   0.0507176
   0.2468015   0.1665401   0.8156900  -0.3413814  -0.0628590  -0.1645960
  -0.0903142   0.0853868  -0.4553668  -0.8825924  -0.9008613  -0.3851976
   0.4203860  -0.2666351   0.0199832  -0.1221914   0.1592599   0.0216928
   0.2759621   1.7728298   0.6069415   0.2874446  -1.1060073   0.3805669
  -0.0260538   0.2093487  -0.2455165  -1.1140312  -0.7379392   0.1524867
   1.1364086   0.2850649  -0.3099622   0.2647998  -0.0570944   0.0447966
   0.2378554  -1.0148224  -0.6374341   0.1593212  -1.1400198   0.5550748
  -0.2453564  -0.3048832   0.3222539   0.6971713  -1.0196546   0.3899159
   0.0981003   0.0320723  -0.4122705  -0.0726334  -0.4184942  -0.3359463
  -1.4276526   1.2134827  -0.2659388  -0.1352356   0.4536541  -0.2129361
  -0.3938633   0.1288810   0.0647863   1.7800601   0.1076397   1.2109641
  -0.2449587  -0.7789403  -0.2597812  -0.1413841  -0.2875977  -0.1041154
   0.0054057   0.0522004  -0.8674313  -0.3868736  -0.7603619   0.9056417
   0.2383779  -0.0591245  -0.1493870  -0.0017332  -0.8664873   0.3142378
   1.0978574  -0.6356755   0.5290575  -0.1552316   0.0400518  -0.2291238
  -0.5740617   3.4109850   1.1970060   0.4517784   0.0337416   0.1421715
  -0.2760060   0.2103987   0.1213830   0.8446754  -0.4544203  -0.8356413
  -0.0915557  -0.6337107   0.7472234  -0.0974060   0.1238328  -0.3574190
  -0.3067720   0.1575849   0.0037125   0.2570871   0.5973755   1.3528029
   0.2570401  -0.3226109  -0.0322524   0.3746456  -0.0610897  -0.5345953
   1.1036278   0.2306247   1.1863047  -0.1560349   0.0640884   0.0640464
   0.6225902   1.0649272   0.7621339   0.6286271   1.3776133   0.0796665
   0.0269034   0.0048843  -0.0143857  -0.0490446   1.6550192   0.5740095
   1.1343359   0.6116382   0.3904037  -0.3109042  -0.0232267   0.0082592
   0.2809931  -0.9738751   1.0739090   0.1342425   0.1866824  -0.6163077
   0.4129457  -0.0023394   0.0623529  -0.6585060  -0.0887853  -0.2696627
   0.5511993  -0.5062125   0.8503651  -0.2317587   0.0448555   0.0856818
  -0.5751311   0.2156272  -0.3136819   2.1441691   1.2201209   0.8985397
   0.4269353   0.1145036  -0.1309090   0.5431783  -0.1821173  -0.1212363
   0.0356870   0.4170051   0.2098075  -0.1690404  -0.0422188   0.0488296
  -0.9265826  -0.2232957  -1.7316217   0.2121463   1.1874791  -0.2958354
  -0.3101766  -0.0269961  -0.1284540  -0.9506203   1.0676284   0.8782397
   1.1461402   0.6434630  -1.2452071   0.1526206  -0.1645081  -0.0527690
  -0.0018081   0.4145885   0.1540574   1.7654836   0.6356051   2.8804667
  -0.0925481   0.0857605  -0.0680123   0.6589947   0.5077316   0.1754251
  -0.4423293   0.9100859   1.2139757  -0.1615856   0.2526790   0.3121673
   0.0120115   1.3781029  -1.3468962  -0.2131754   0.5482845   1.0729709
   0.2356663   0.1128420  -0.0040470   0.0038527  -0.4329699  -0.3601210
   0.8929277   0.3171036  -0.9110134  -0.3841240  -0.2722512  -0.0770017
   0.2619316   0.0925744  -1.1521077  -1.3460461  -0.8221321   1.4834199
   0.0375699  -0.1711597  -0.1896771   0.1336333   0.3889513   0.0958859
   0.4417782  -1.0014209  -1.1122905  -0.2315727   0.0548120   0.2864740
   0.1038106   0.1743420  -1.6341349   0.4888852   0.2603982  -0.4514060
  -0.2637677  -0.1452542  -0.1064756   0.8268963  -0.9399849  -1.6045026
  -0.1205833  -0.5122688  -0.0132376  -0.1603806  -0.0452790   0.1047395
  -1.5379783   0.1934432   0.8292310   0.0895181  -0.1684165  -0.2764578
   0.0432389  -0.0830303  -0.4737410   0.3238869  -0.2435544  -0.8400929
  -0.8808398   0.2363560  -0.0446996  -0.0135525  -0.0813352  -0.2316033
   0.3849200  -1.4646444  -0.5917001   0.4553802  -1.8618461  -1.0514784
   0.1829604  -0.0380550  -0.1920509   0.5691457   0.4686303   0.5524933
  -0.1536272   0.2247571   0.7480384   0.2524640  -0.2454784   0.0367377
  -1.0574027   0.2611536   0.4478620   0.6961038  -1.2389591   0.4453576
  -0.0946457  -0.1298184   0.0841494   0.2870082   1.7349249   0.1654272
  -0.9287712   1.0199658   0.7563736   0.1598373   0.3118565   0.2154409
  -0.5210897  -0.1979647  -1.6897744   0.7663621  -0.1168058  -0.7159676
  -0.1383438   0.2558425   0.0017607   0.7789651  -0.0935092  -0.0190454
   1.0278243  -1.4113179  -0.2842364   0.3789867  -0.1039533  -0.0060453
   0.9338245   0.3652521  -0.5089232  -0.2535668   0.6410788   0.3289265
   0.0446273   0.0793141  -0.1441921  -1.6595372  -0.9646654   1.0080408
   0.5214669   1.3390799  -0.5008220  -0.0482947   0.1995931  -0.1868747
   0.5808154   0.4015554  -0.1461111   0.6343070  -0.0071845  -1.4022552
  -0.3362527  -0.0397629  -0.2427650  -1.0266508   0.5405725  -0.5579427
   2.1933596  -0.3881781  -0.3087980  -0.0782176  -0.3288687   0.1954809
   0.0984657  -0.2231435   0.7622684   0.7275617  -0.8073454   0.1005753
  -0.2261362  -0.2458216  -0.0292893  -0.0378261  -0.3473883   0.3564101
  -2.2865400   1.2533726  -1.3290379   0.1537997  -0.1883942  -0.2115496
  -0.2469260  -1.5252361   1.1313492  -0.0843740  -0.1668811  -1.3206379
   0.1023147  -0.2236405  -0.1288549  -0.8162031   0.3428976   0.7834459
   0.2839730   0.0977081  -0.2146671   0.0211674   0.0471714   0.2203534
   1.7237351  -0.1429906  -0.9919059  -1.9762784  -0.4493103  -0.2445166
  -0.5910562  -0.3525981  -0.0637639  -0.2012659  -0.0663851  -0.8046001
   0.7299935   1.4233829  -0.3357290  -0.2997992   0.0427964   0.0521563
  -1.0372561  -0.5355718   0.6345566  -0.6822568   0.1356824  -0.5339950
  -0.0670393  -0.1272312  -0.1619819   0.9088448  -0.1218355   2.4648206
   0.8551425   1.0910544   0.5269564   0.0725470  -0.0106747   0.1905486
  -0.1815962   0.4362502   0.4623470  -0.6165801   1.0791790  -0.9750391
   0.2997937  -0.4189146  -0.2153207  -0.1111127  -0.0263192   0.8068789
   0.1669422   0.0473528   0.0305789  -0.2948023  -0.3064287   0.0195861
   0.1017118  -0.1031409   0.6012582   0.4292636   1.0934540  -0.5358641
   0.0476391  -0.3785158   0.4902458  -0.9890699   0.8201089   0.2934976
  -0.1635368   0.7145624   0.8279355  -0.0576012  -0.0546551  -0.0092449
  -0.7675275   0.0535649  -0.0578207  -0.3779344  -0.0000131   0.1044567
  -0.2118212  -0.4483528  -0.2054960   0.0884705   0.0783232  -0.6305007
   0.2443657  -1.6686317   0.2707101  -0.0697963  -0.1067281  -0.0549161
  -0.4256697   0.9803062  -0.8952814   0.3315243   0.3084298   0.7085316
  -0.0432709   0.3037632  -0.0735737   1.1181155   0.5005221  -0.5858288
   0.0989532   0.6513205  -0.3148638   0.0254332  -0.0212890   0.0604833
  -0.3684638  -0.1910431  -0.9310516  -0.6085163  -0.1834726  -1.4454541
  -0.0946853  -0.3520506   0.3607804   0.0140029  -0.2081607  -1.1316639
   0.0609418   1.9876289   0.2594392   0.3554217  -0.1190206  -0.0789384
   0.7063087  -0.8425244   0.2635678   0.7393857  -0.2512906  -1.5034214
  -0.1591097   0.0447153  -0.3465538  -0.3098979  -0.1112109  -0.3919753
  -0.7643527  -0.2353399   0.3198225   0.4231250   0.0871898  -0.0233594
  -0.4338543  -1.1206717   0.5214831  -0.3437301   0.2007496  -1.4313728
   0.0847172  -0.1439949   0.3049521   1.3155866  -1.4846890   0.3662643
   0.6318084   0.3559031   0.8915209   0.0999155  -0.1098282   0.0055670
  -0.7308290   1.0069563  -0.7805606   1.2211008  -0.1575676   0.4109727
   0.2916780  -0.0525149  -0.2371156  -0.0925629   0.4308625  -1.2251720
  -0.0067760   0.1745003  -0.4777598  -0.0889568   0.0606340  -0.0504389
   0.1034391   1.5490236  -1.2782319   0.1895339  -0.2115126  -1.3101417
   0.1981691  -0.2431255  -0.0954452  -1.3345443  -1.0654905  -0.8482364
  -0.7322111   0.9264015  -0.2164581   0.1026736   0.1720972   0.0233627
  -0.0599302   0.2020854   0.4146040  -0.6062587  -0.3925616  -0.3340915
   0.0173394   0.2305510   0.3130278   0.9746716   0.4581738  -0.4565000
  -1.4103224   0.4797939   0.1907941  -0.1974070  -0.1353492  -0.0814272
   0.2547447  -0.0758520  -1.1325792   0.6652672   1.0398853  -0.2619583
   0.0234096  -0.0464591   0.0659481  -0.9659765   0.6372185   0.5256823
   0.5303680   1.1732273   0.1031440   0.0531295  -0.0005296   0.1744915
  -0.6965070   0.2485270   0.2649873   2.8838458  -0.6238987   0.2129287
   0.0700269  -0.2466024   0.1472200  -0.5093881  -0.1523585   0.5988751
  -0.3374317  -0.1300224   0.1866266   0.1889284   0.0629224   0.0733491
  -0.0454169   0.3120061  -0.9910016  -0.1228700   0.9911456   0.8715998
   0.0662588   0.3445279   0.4535727   0.0523738  -1.1181971  -0.4635564
   1.3458830  -1.2089039   0.0490213   0.2464694  -0.1311409  -0.0865247
  -0.5852791  -0.8192554  -0.1508421  -0.6366961   0.5317414   0.5209529
   0.2430348  -0.3156503   0.0717976   0.4661517   0.9258651  -0.4004045
   0.2417699  -0.4370814  -0.3041345   0.0850793   0.4030998  -0.1091720
   0.6760440   1.1431267  -0.9747909   1.1485364   0.1248439  -0.9623704
   0.0742573   0.0609202  -0.2758137   0.7676148   0.5930755  -0.1993837
  -0.5066259  -0.4455663   0.0375485  -0.2229347  -0.0586850   0.0143388
  -0.0372480   1.1295990  -0.1901741   0.3663136   0.7765048  -1.6423802
   0.2453172   0.1323884   0.1792835  -0.6708633   0.2728597  -0.6466265
  -0.4519940   0.1558363   0.1203813   0.1834763  -0.2297568  -0.0561372
   0.7708797  -1.4704816   0.7173146   0.1550177  -0.4081085   0.0053480
  -0.1877427  -0.2194883  -0.1665832  -1.1887413  -0.0869636  -0.8616179
  -1.2762141  -0.6111259   0.6485651  -0.2146012   0.2107603  -0.3322562
  -0.6951023   0.1899505  -0.8252133   2.1273036  -1.0348370  -0.4554467
  -0.0639388   0.0634679   0.1618964   0.5981488  -0.1821209   0.2019774
   0.7766063   1.1193594   0.5660393   0.0206535   0.0796468   0.3495750
   0.4740158  -0.8964117   0.2083341  -1.2993507   0.8147351  -0.5736082
  -0.1445447   0.3315068   0.2322282  -0.1533090   0.1154901  -0.1401365
   0.1210418  -0.0907480   0.2683308  -0.1378810   0.0093814  -0.1390509
  -0.9163784  -0.8992338  -0.1646127   1.2755417   0.3078406   0.4824727
   0.1592377  -0.2093234   0.2296744  -0.0159420   0.4260367   1.0057938
  -0.6194610   0.9460164  -0.3219110  -0.0088033  -0.0441828  -0.0291547
   1.5049906   0.3437526  -0.1087084   0.0545860   1.4548186   0.4524696
  -0.0765399  -0.1572126   0.3570450   0.6287477  -0.3467792  -1.3111370
  -1.2407162   0.0026674  -0.7386648  -0.0814466   0.0216887  -0.0195928
  -0.2489700   0.3300959   0.2868513   0.1480286   0.2379551   1.2866492
   0.0045502   0.0260980   0.0191275  -0.5044293   1.0795776  -0.0407824
   1.1569026   0.9956574   0.4369082  -0.1428297   0.0357247   0.0247456
   0.2735764   0.3388784  -0.2239302   1.3919023   0.8606066  -0.5900401
  -0.0235054  -0.1234958   0.0676866  -0.1652276   0.4615861   0.9237078
   0.4434974  -1.0274116   0.4307454  -0.0675230   0.2563438   0.0578640
   0.9431720   0.2448674  -0.1811613  -0.9840881  -0.4360163   0.1041703
  -0.0165361   0.1273466  -0.1663887   0.1379854  -0.6535003   0.2052467
  -0.3489102   1.7450505  -0.2602244   0.0643105   0.0234843   0.0613717
   1.3075631  -0.0173982  -0.1962313  -0.6180376   0.0328591  -0.2768054
   0.1791228  -0.2809862   0.2228619  -0.5957903   0.6649175   1.5227895
  -0.5482277   0.7232541  -0.4134214   0.1795485  -0.3533369  -0.0596275
  -0.9484887  -0.2721702  -1.0014240  -0.6898312  -0.2095025  -0.2146323
  -0.1071092   0.1554159   0.1015241  -0.4095986  -0.3918411  -0.5652426
  -0.1925906  -0.5411370  -0.0580754  -0.0729007  -0.1802926  -0.1632626
  -1.7600724  -1.2098645  -1.7093350  -0.9557500  -0.2964278  -0.8681247
  -0.1830794  -0.0216746   0.1984307   0.2255181   0.4687307   0.6495116
   0.0992947  -0.7475606   0.1593589  -0.1743602  -0.0142124  -0.4488517
   0.9524609   0.5665373  -0.9536332  -0.4896959   0.7180986  -0.9221383
   0.1586836  -0.0010926  -0.1240024   0.2811753  -0.3911583  -0.2157481
   0.3357759  -0.9079409  -0.4195905   0.0374399   0.1034906   0.0411313
  -0.5732233  -0.3267621  -0.0157123   0.1509994   0.0659969  -0.7792341
  -0.0834705  -0.2602949   0.0867717  -0.5041476   1.3660675   1.5820177
   1.5417949  -0.0101151   1.3526571   0.1832286   0.0143863  -0.1311454
   0.8332651   0.8727138   0.9591966  -0.0869937  -1.1165628  -0.3429297
  -0.2093450   0.1720533  -0.2507488  -0.6018459  -0.4435941  -0.0268410
  -0.8319740  -1.6302646  -1.0371901   0.0351808   0.2670899  -0.0763238
  -0.3495415   0.6788104   0.8381004   0.9728994   0.1506956   0.4832915
   0.1538811   0.0481806   0.0927220   1.5380270  -0.6642666  -0.6123221
   0.0761911  -0.4007868   0.2455781  -0.2494739   0.0032129   0.0222065
  -0.4406127  -0.8021522  -0.0424157  -1.4551378   0.0848505   0.1022964
  -0.0163448  -0.2569700   0.1995309  -1.0416161   0.3406795  -0.1227454
   0.4094704   1.2533712  -0.7732868   0.1754444   0.0368331   0.1065267
   1.3111122  -0.7735129  -0.5693425  -0.9095481  -0.4600716   1.0261680
   0.0926753   0.3410330   0.1293564   0.0759734  -0.1091517   1.4102494
  -0.9714529  -1.6523507   1.4468820   0.0317949  -0.0787319  -0.0947463
  -0.9397684   0.3523721  -0.3414989  -1.2054338   0.5367811  -0.9582051
   0.1575824   0.0381211  -0.0114429   1.1493161   0.6961129   0.6145709
   0.6194295   0.1854655   1.1506186  -0.0483004   0.0831668   0.0593106
  -2.1747701   0.9078503   0.8530084  -0.3426311  -0.1186708  -0.8050624
  -0.1039051  -0.0761531   0.0422184   0.5546233  -1.0804735   0.0968123
   0.7897392   0.3669644   0.4905830   0.0504104   0.0417109   0.0522759
   0.9102558  -0.7124712  -0.3071776   0.7205117   0.3825628   0.1516256
   0.1677086  -0.1483626   0.1096907   0.4115798   0.7253966   0.4558415
  -2.6136084   0.7185698   0.2653643  -0.0436117  -0.1265608  -0.0741034
  -0.5393294  -0.5276239  -0.4055136   0.8272270   0.0750513   0.1560968
  -0.3982823  -0.0086430   0.1114343   0.0757778   1.0158919  -2.1088996
  -1.0134370   0.8671825   0.0880065   0.3499082   0.0961922   0.0637634
  -0.6417914   0.2878335   0.2735166  -0.0841810   0.5710062  -0.6468686
  -0.2586862  -0.3008048   0.0529250  -0.1912270  -0.0114126  -1.0790330
  -0.2125379   0.9378645   0.7519972  -0.0151621   0.2608701   0.0145369
  -1.7776557   0.4669803  -1.4674274   0.2558659   0.1604308   0.1121395
  -0.1965803  -0.0719361  -0.0415349  -0.2229286  -0.4647247   0.2153334
  -0.2956280  -0.0049200   2.1637564  -0.4951673   0.0882982  -0.1188731
  -0.9761308  -0.9363144   0.5474399   1.1320627  -1.0565939   0.2162391
  -0.2038400  -0.1607421  -0.2886723  -0.8223112  -1.3885177   0.5516160
  -0.0237717  -0.0756259   0.9689615   0.0376791  -0.1871248   0.1225468
   0.1979740   0.8337722   0.2678149   0.5120400  -0.5417088  -0.9749259
   0.0120690  -0.0552302   0.3798071   0.1837143  -0.8889053   0.0020232
   0.8090810   0.7504646   0.2712461  -0.2218207   0.1802697  -0.0912169
   0.6601943  -0.7999101  -0.6920153   0.0684850  -0.9287990  -2.4679940
   0.1672432   0.0369669   0.1721853   0.1044307  -0.0133754  -0.8285439
   1.5549208  -0.1525394   0.8566292   0.2786432  -0.0692479  -0.1157327
   0.6875127   0.2162266  -0.2109986   0.7549108  -1.2907504  -0.7093931
   0.1185491   0.1375870   0.0061844   0.3669003  -1.8532251   0.4841303
   0.6396776   0.7096912  -1.8151559  -0.1851230  -0.0209902   0.1098077
  -0.5305069  -0.6033124  -0.3818926  -0.2595064   0.4678071  -0.3796238
   0.1578238  -0.1390581  -0.0972356   1.3715482   0.7196115   0.1699000
  -0.7968827   0.8013388  -0.2653944  -0.1217174   0.1816245   0.0009469
   0.7085743  -0.2054321   0.1009754   0.3426551   1.5388620  -0.0352218
   0.2388336   0.0214818   0.2158519   0.5943519  -0.3811138  -0.4273824
  -0.0790267  -1.0285995  -0.5329658   0.2133738   0.1507932  -0.0623069
  -0.5358110   0.2512800  -0.0476391   0.4540798  -0.3403096   1.6702858
   0.0700765   0.3390122  -0.0707471  -1.0235702  -0.5945653   0.5435387
   0.9602365   1.6254693  -0.4092966   0.1160543  -0.2715361   0.1714945
   0.3843072  -1.4034964   1.1811340   1.1245047   0.5192877  -0.8043872
  -0.1354021   0.0541900  -0.0038525  -0.3409905   0.1577958  -0.5582942
  -0.2554328  -0.2035403   0.4284582   0.3722256  -0.2266530   0.0676911
  -1.2711334  -1.0944752   0.5464909   0.5230336  -0.8139129   0.6777506
   0.0844323   0.0458115   0.2665791   0.4713744  -0.4416099   0.3636169
   0.1136275   0.3080964  -0.2529445   0.1772276  -0.4448859   0.0826441
   0.2833108  -0.0126768   0.3419386  -1.2286689   0.6545560  -0.3136741
  -0.2295811   0.0715236   0.3281752   0.9073338   0.0546373  -0.3599257
  -0.9059187   1.1628495   1.3428397  -0.0822739   0.1281264  -0.3003286
   0.3156257   0.4129152  -0.6746436  -0.1464286  -0.2102942   0.0315142
   0.1801541  -0.1876834   0.1113429  -0.3692537  -0.0577134   0.2150732
  -0.9056213   1.1168038   2.3289931  -0.2163877   0.0118754   0.0200776
   0.1816019  -0.9978477  -0.6350670  -0.1605170   0.8161075   0.3824452
  -0.1724075  -0.2854202  -0.2119694  -0.1874804  -0.0358902   2.3294823
  -0.4861385   0.1437895  -0.8264160  -0.1523008  -0.2073759   0.3016782
  -0.0288582  -0.5277199   0.3959920  -0.0340452  -0.3163339   0.1809275
  -0.1581889   0.2047411  -0.1673985   1.8381752   0.7054977  -0.2721372
  -0.6237754   0.6872215   0.6320815   0.2625723   0.0595092   0.1120781
   0.3717659   0.5090017   1.3345467  -0.6013739   0.2195796   0.0560901
  -0.1871059   0.1756113  -0.4098713   0.0879048  -0.5458853   0.0335090
   0.4066456  -0.6013147   0.8511220  -0.1331118   0.2077290   0.1294339
  -0.0805777  -1.2345554  -0.2023303   0.0763489   0.4878040  -0.4664828
   0.4283139  -0.1499673  -0.2141366   0.3710764   0.5219172   0.2414060
  -0.2217365  -0.5440270   1.2657259   0.0647039  -0.1197558   0.0600713
  -0.7055494   0.5864382  -1.6398919   0.5695458  -0.3613544   0.0647943
  -0.2312168  -0.0854982   0.2761526  -0.2051341   0.1492287  -1.5280296
  -0.0616917   0.0832922  -0.6275246   0.1568545   0.0996934  -0.3794883
  -1.5665624   0.3309764   0.6359994   1.8168452   0.2934026   1.1020123
  -0.3733681   0.0839212   0.2922903   1.6355673   0.9067212   0.0472997
   0.6892579  -1.3012275   0.5531189   0.0352349  -0.1834541  -0.1038334
   1.0446860   1.3747282   0.4193728   0.8706592  -1.2718472   0.8376971
  -0.1614981   0.2763847  -0.1342795   0.3622693   0.3119901  -0.5066599
  -0.8612719   0.1382564  -0.3536628   0.0839026  -0.0682478   0.4226274
  -0.1853983   0.6697787  -1.2017294   1.1199540   0.1325042  -1.0857258
   0.2297352   0.1316555  -0.2489641   1.1512278   1.5169388   0.1178156
  -0.1796110   1.7735039  -1.2382785   0.1915120   0.2024873  -0.0730337
   0.2781914  -0.3115489   0.1686291  -0.8534432  -0.0112502  -0.4866030
  -0.0034134  -0.0308125  -0.0923830  -1.9472423  -1.1527305   0.2097885
   0.8389362   0.0790534  -1.1435544   0.4274252  -0.1535669   0.3776845
  -0.5497772  -1.2052280  -0.3800204  -0.1137757   1.2926512  -0.1571939
   0.0430484  -0.1799553   0.0031571   0.0361013   0.7436779  -1.4984962
   1.1524053  -0.4330166   0.4142154  -0.0452940  -0.2873414  -0.0816846
   0.1004056   0.4191827   0.5819795  -0.0494335   1.6070523   1.5923645
   0.0333903  -0.4303762   0.2385835  -1.0008708  -0.0167104   0.9979948
  -0.7159358   1.1279263  -0.7585210  -0.0074701  -0.1041638  -0.0532640
  -0.1518263   0.1400835  -0.8411878   0.2708749  -0.7256618   0.6194810
  -0.0527994   0.2027820  -0.0050640   0.0944868  -0.5878015  -0.1658997
   1.7657204   0.8848357   0.1061553   0.1550540  -0.1517190   0.5488230
   1.2884982   0.3600728   0.9330925  -1.4526459  -0.2629586   1.1353825
  -0.3068992   0.0622705  -0.0416941   0.1770042  -0.2307719  -0.2375797
  -0.8730989   0.9858881   0.5471001   0.0331926  -0.0238824  -0.1594166
  -1.5981511  -0.1899111   1.0973173   0.3959485  -1.8959132   1.6621532
  -0.2324676  -0.0772406   0.2282586  -0.0523813  -1.7566917  -0.0050688
  -0.1597041  -0.6687850   0.6197699   0.1241534  -0.0817031  -0.0673266
  -0.2137138   0.1327206  -1.0981332   1.3007123  -0.3252717  -1.6887006
   0.0623590  -0.2201683   0.3234828  -0.2814195   0.4844388  -0.9371679
  -0.8199652   0.0079868  -0.3917717   0.0344856   0.2212291  -0.0030502
   0.2662870   1.4911214  -0.0875871   1.0233446   0.0838567   0.6430206
   0.2555995   0.1544570   0.0084001  -0.2854235  -1.1253107  -0.4079309
   0.1962499   0.6600972   0.3817823   0.1468637   0.1359489  -0.0787632
   0.4303063   0.3386210   1.1428878  -0.3944759   0.5553933   1.3559438
   0.0959028  -0.0491598  -0.1961108  -0.3950730   0.2884295  -0.3278637
   0.0906390  -0.0860116  -0.0868519   0.0419356   0.2018603  -0.0161426
  -0.0095264  -1.4528687  -0.4543817   0.9133943  -0.7121387  -0.5857407
  -0.1375102   0.0843002   0.0140507   1.2400343  -0.1959087   0.8544006
  -0.4525126   0.7507720   0.9041832   0.2110168   0.3491019  -0.0148168
   0.7649304  -0.1508097   0.6633636  -1.0981902  -0.3826094   0.2255508
  -0.0345248   0.0242675  -0.0548386   0.4775596  -0.8456410  -0.0741353
   0.1570549   1.1458614   0.6150620  -0.0029154  -0.2076139   0.1543841
  -0.1357407  -0.6599148  -0.3360305   0.0057880   0.5323770   0.1344751
   0.0883860   0.0867522  -0.0355149   0.1941519   0.3268754   0.5773166
   0.2953303   0.1617416  -0.4331558  -0.0724194   0.2540502   0.0933463
  -0.6294087   0.9369307   2.2520146  -0.0858281  -0.3950126  -0.7269545
  -0.1149903   0.2182802  -0.0314467   0.1805418  -0.3153300   0.1797726
  -1.2689221   0.5796029  -1.8814472   0.0170911   0.3494357   0.0686345
   0.2969450  -0.3975932  -0.0745487   0.8285118   0.5881416   0.5397838
   0.3716974  -0.1267329   0.3914323  -0.5389776   0.3785827   0.7537625
   0.3501190  -0.3772825   0.2183390   0.3958844  -0.1278911   0.0121790
  -0.3700759   0.2275367   0.2975594  -0.3993114  -0.3307289   0.0725743
   0.1876982  -0.0051323   0.0539042  -1.5533421  -0.9508392   0.6900882
  -0.8348848   0.1032424  -0.9086739  -0.5511029  -0.0792705   0.2352641
   0.1896632  -0.0766184   1.8522931   0.6195632   1.0499409  -1.3349220
  -0.0936354  -0.0141160   0.1872429   1.6575234   0.4029402   0.6984535
  -1.0438671  -0.8694115   0.4278392  -0.4704622  -0.2507484  -0.1818342
  -0.6350705   1.4074994   0.5650771  -0.4167775   1.5638644   0.0583609
   0.1486101  -0.1626685  -0.0476579   0.4538908   1.0179119   0.8651607
   0.1841363   0.4169041  -0.8446513   0.1153073  -0.1018375  -0.1562027
   0.2205337  -0.2116369  -1.5458330  -1.2659181   0.1418491  -0.0846474
  -0.2109965   0.0295022  -0.0105052   0.6103489   0.9218286   1.0379919
  -0.8940933   0.1309495  -0.9094706   0.2000728   0.0406550   0.3045313
   0.8220647  -0.0167199  -1.6793112  -0.7258481   0.2305556  -0.6594459
  -0.1014350   0.0236365   0.1022049   1.4823031   0.0043514  -0.0607117
   1.7005173  -0.5399730  -0.7857102   0.0009214  -0.1412874   0.1771394
   0.6391773   0.3971467   2.1922185  -0.1238603   0.3416656   0.5346939
   0.1444526   0.2885158   0.1509848  -1.0608355   0.4083520   0.8365790
  -0.5693890  -0.2589792  -0.6847135  -0.0582881   0.3329566   0.0461514
   0.3355027   1.1314230   0.5612682   1.1855159  -0.1042132   0.9770565
  -0.1375297   0.0805000  -0.4311467  -0.5694542   0.0370835  -0.9325824
   0.7500955   0.0188003   1.1307389   0.1848064  -0.0620544   0.1154677
  -0.2957808   0.8595096  -0.3156005  -1.0434103   0.4243102   0.2534015
  -0.1603545   0.1165300   0.1904933  -1.0935485  -1.1997086   0.4361738
  -0.2960865  -0.0003968   0.6423932  -0.1420979  -0.2156209   0.3903492
   0.9417151  -0.2535436  -1.2509229   0.1929388   1.2700777   1.2907323
  -0.0601064   0.6373021  -0.0810195   0.2452925  -1.5442468  -0.2465291
   1.4299177   0.3503403  -0.4032438   0.1942977   0.0514449  -0.2738397
   1.1314914   1.4105966  -1.5090824  -0.3243298   0.5048353  -0.7983429
   0.0977399   0.0064174  -0.0209031  -0.3682438  -1.4494251  -0.8910099
   1.3036466  -0.6343642   0.7498645   0.0023062   0.0255376   0.2095799
   0.3026066   1.3581083  -0.0163125  -1.4966631  -1.0016062  -1.8557383
  -0.4253597  -0.0822279  -0.2341423   0.3829153  -0.6570228  -0.4432925
  -0.9675311  -1.1296033   1.2548782  -0.1165820  -0.0214518   0.2501173
   0.1143730   0.0174435  -0.0670880  -0.6922333  -0.2069353   0.3437557
   0.3629457   0.2577149  -0.0369877  -0.3951157   0.1054890  -0.2931552
  -2.5282819   1.5003865   0.7346476   0.0115504  -0.0956193   0.2120607
  -0.5737311   0.9275203   0.6131235   0.8796805   0.5854299   0.5709461
   0.0973654  -0.0520994   0.3250633   0.1078971   0.5759237  -0.9637821
  -0.2452960  -0.8793603  -0.8132402   0.3825739   0.4069040  -0.2323113
   0.1228819   0.0063716  -0.5244942  -0.0427456  -0.2345529   0.7393860
  -0.0598507   0.2717590   0.0405849   0.1633327  -0.1467360  -1.0749234
   1.6343600   0.4849229   0.2604907   0.1163715   0.1718209  -0.1689208
  -1.9308283   0.1446117  -0.1423865  -0.9967903   1.3619709   0.9162185
   0.0648786   0.1016738   0.1611957   0.2219244   0.8537310  -1.3767771
  -1.2588159  -0.3468175   0.6957492   0.0067567   0.0485043  -0.2139476
  -0.2528767   0.5868887  -2.0683832   0.1649926   0.4537807  -0.7108064
   0.0561902  -0.0140384  -0.1008945  -0.7140259   1.4249018  -0.6961563
   0.1941995  -0.0998190  -0.4814029   0.0173240  -0.1250786  -0.0567785
   0.6825079   0.8569151   0.6171662  -0.2251444   0.4326979  -1.2936379
  -0.2642898   0.1215078   0.0643674   0.7325565   0.1069650   1.5850265
   1.0440756  -0.2311462   0.0573150   0.2267563  -0.1686410   0.1007872
   0.4469556  -1.1888813   0.2011741  -0.1345699   0.4198872   0.2402046
  -0.1520140   0.0459715   0.0677576  -0.4937589  -0.0035948  -0.1425006
   0.6815594  -0.0081474  -0.7305033  -0.0782301  -0.0520676   0.0120672
   0.6559068   0.4058881   0.8771995  -1.1283847   0.2734400  -1.1550380
  -0.0349390  -0.2420865   0.0456021  -0.4136053  -0.7567980   0.0554907
   1.0977432  -0.2505056   0.8088619  -0.1882315   0.2667221  -0.0773194
   0.9685666  -0.3629491   1.0063884   1.0372996  -0.1056941   1.0247756
   0.0313644  -0.0906562   0.0958749  -1.0463029   0.5297834  -1.3899469
   0.0856568   0.7259158   1.6080248   0.0325599  -0.0818258  -0.1467986
   0.0166026   0.6812757  -0.2275164   0.2810229  -0.3324727  -0.5743918
   0.1757075   0.1823283   0.3450918  -0.0981320   0.2588137   0.5519647
  -0.0995814  -1.4084208   0.5230459   0.1688387  -0.2012110  -0.0801248
  -2.0802147   1.4800256   1.3947484  -0.4344211   0.3148152   0.5611326
  -0.1818371   0.3256947  -0.1389397  -0.1765801  -0.2250231  -0.4456102
  -0.3283585  -0.4682685   0.2209153  -0.0058442  -0.0171763  -0.0452932
   1.5052012  -0.3275605   0.0849118  -0.8882021   0.7743780  -0.3996756
   0.0463994   0.3953454  -0.1909397  -0.0546881   1.6727045   0.3393206
   0.2946320  -1.1182193  -1.4216304   0.2528156  -0.3602917  -0.0822687
   0.2273644  -0.0094821   0.4499111   0.0032490   0.2596931   0.3673509
   0.2345518  -0.1777270  -0.0691438   0.5876342   0.7267281   0.5471273
   0.7639568  -1.3405218   0.8313925  -0.0237525   0.0977114   0.0647196
  -1.2077019   1.3208140  -0.7617886   1.1226543  -0.0056865  -0.3035609
   0.1383493  -0.1423636  -0.1570025   1.0060159  -0.6668484  -0.4743015
  -1.3595940  -0.3211952  -0.9036069   0.0853952  -0.2847308   0.0264722
  -0.3937421  -1.3954027   0.3146650   1.5888476  -0.1904193   0.2555947
  -0.0421018  -0.0407676   0.1057771   1.5698810   1.2004260   0.4401196
  -0.1999725  -2.0176175   1.9495218  -0.0053567  -0.0710171   0.2804956
  -0.9437566  -0.3959433   0.3078789  -0.8748039  -1.1526680  -0.7593501
  -0.0215631   0.1059286  -0.0858279  -0.5815327  -0.4606978   1.1010673
   1.1272411   0.6713091  -0.2710534  -0.1179795  -0.1353597   0.2462080
  -1.0023397   0.3646203  -0.0338157  -0.4130444  -0.8316002   0.6759300
  -0.2554184  -0.2502289   0.1364970   0.3011316   1.8886777   0.4425443
  -1.0039860  -0.5757613  -0.5664160  -0.0348920   0.3564220   0.0633069
  -0.2915527  -0.8604439   0.3427126   0.7034124   0.1505848  -1.0436865
  -0.4355434  -0.0860889  -0.1266788   0.8452404   0.6389660   0.5475145
   0.1947137  -0.3452723   1.0811336   0.2077166  -0.2170334   0.1226720
   1.3545539  -0.0540775  -0.1570879   0.6499867   0.1652296  -1.1684002
  -0.0416449   0.0545117   0.0340419   0.1186288  -0.6151115   0.2748835
  -0.1281490   0.0412545  -0.6555966   0.0057452   0.1289766  -0.1341256
   0.2776172  -0.2651363  -0.1081981   0.5656925  -0.9648518  -1.4730618
  -0.0420511  -0.1798113  -0.3181694  -1.4860512   0.7737622   0.1413769
  -0.0076485  -0.0849332  -0.6880906   0.1377718  -0.0094072  -0.1997298
  -0.1096392   0.7694191   0.3012756   1.1787328  -1.3583909   1.1816735
  -0.0236472   0.0376656   0.1914919   1.5569150  -0.6413698   0.6882365
   0.2799987   0.1432087  -0.2957559   0.3815799   0.0722419  -0.0413461
  -0.9731564   1.1288470   0.0900841  -1.2478759   0.7295340   0.8114486
   0.3049617  -0.0621234   0.0742585   2.0128520  -0.1518552   0.3280394
  -0.6737930   0.2898208  -0.4984908  -0.2026288  -0.0123952   0.1242910
   2.0252953   0.6395577  -0.4153104   0.0406098  -0.0288069  -1.5811006
   0.1171991  -0.1163271   0.1146841   1.1292779   0.5981822   0.4766037
   1.8302239  -1.2465620  -2.8148527   0.1857585  -0.0470552   0.1777296
   1.5823487  -0.1924596   0.0997813   1.2349654   1.7100316  -0.1737845
   0.0428309   0.0515108   0.0656753   1.2614052   0.0156241   0.3687640
   1.3095589  -0.7210105  -0.2703153  -0.0694106   0.0864522   0.1338637
  -0.5005620   0.2636096   0.1167052  -1.4547493  -0.3540611   0.4258843
  -0.0660345  -0.3695228   0.0015455   0.0106002  -0.6797845  -0.9064063
  -0.2398707   1.0778332  -0.3645554  -0.1965919   0.2564072   0.1454485
  -0.2806282  -0.3842615   0.0162969  -0.1963318   1.8522712  -0.1087097
  -0.2801069  -0.0362459   0.0607556   0.0926342  -0.5719059  -0.7759380
   1.4209167   0.6299407   0.0628154  -0.0379276   0.0909285   0.3020585
  -2.6029084  -0.4498130   0.5153216  -0.4861063  -0.3367001   0.1117801
  -0.1270449  -0.1776193   0.0517290  -0.1864622  -1.7997813  -0.5053465
  -0.3383924  -0.6835997  -0.4046843  -0.0435402  -0.1027607   0.0371412
  -0.3027622   0.0204189   0.7863460   0.3923402   0.3706168  -0.5605052
  -0.1777669  -0.1954594  -0.2426191   0.7158366  -0.8091055  -1.3722951
  -0.2342566   1.2096733   0.7605214  -0.1177368   0.2292465  -0.2023091
   1.5911224  -0.9017807   0.7886579   0.2753341   0.2827229   0.0197481
   0.1013454   0.0196136  -0.0285514   0.8658479  -0.2450826  -0.4382155
   0.6987441   0.4656902   0.3624120  -0.1927174  -0.0887584   0.1317467
   0.0812158   0.1694913  -0.9395427   1.2326916  -0.4725887  -0.6824153
   0.2228263  -0.5151209  -0.0471680  -0.4483034  -3.1144948   1.1017715
  -1.1730177   0.6853809   0.6912948   0.0335541   0.2482381   0.4144538
  -0.1763503  -0.0912025   1.5023527   1.9732378  -0.9370824  -0.5826743
   0.0599732   0.3768281  -0.1936115   0.2980777   0.8378384   0.3584693
  -0.2516456  -1.4039137   0.5367621   0.2354691   0.0411175   0.1524749
   0.9086396   0.2437633  -0.2273328   0.6773483   0.1559017  -1.4975783
   0.2180271  -0.1717222  -0.2006815  -0.1740496   0.3974447   1.3499222
  -0.5855234   1.2670507  -0.1768146   0.0362074   0.0789564   0.0463237
   1.9047842  -0.7897060   0.9856979  -1.3014176   0.9966066  -0.2058053
   0.3621987  -0.2603380   0.1133164  -0.3003865   0.7322454  -0.9481216
  -1.1051183   0.1438622  -0.5736603   0.0307564  -0.1307595   0.1549542
   0.3206020  -0.7185354   0.1731780   0.3228454   0.9930722  -1.3348728
   0.0847426  -0.1133544   0.0912300   0.8831081  -0.9486400  -1.1411561
  -0.3598701  -0.3474208   0.3919430   0.2171233  -0.0276313  -0.4453283
   1.1088113   1.1206467   0.7972355   1.0528138  -0.7764958  -1.3584374
   0.1696556   0.1230052  -0.3427022  -0.8039951   0.1855679   0.6139258
   0.4271378   0.4406247   0.0302534   0.2691153  -0.0460836   0.0513165
   0.6307428  -0.7334139   0.7834159   0.6171550   0.8232542  -0.2244274
   0.2314373   0.1460161  -0.0945685  -0.1816376   0.7926325  -0.5417914
   1.1245321   0.5765784   0.3033706   0.2746430  -0.3623776   0.1316049
   0.5066862   0.3472437   0.9683167   0.1607624   0.2627686   0.4276597
  -0.0522658  -0.0270776  -0.0356390   1.3537092  -0.9005116   0.3898581
   0.1623787   1.1416777  -1.4816283   0.0495563  -0.2559404  -0.2859477
   1.1378713  -0.2619620  -0.7811670   1.6860036   0.5002869  -0.0913860
  -0.2921030  -0.5104124   0.1947201  -0.2952129  -0.4650028  -0.1773835
   1.1611298   0.1693608  -2.0825651  -0.1002880   0.2041922   0.2088412
  -0.8962030  -0.5539868   0.8152764  -0.5886876  -1.7482541   0.0963727
  -0.0227901   0.0623455  -0.0440370  -0.4860556   0.0114913   0.1449612
   0.3577059   1.6959503   0.5180480  -0.0779712  -0.0183425  -0.0053159
  -1.0283078   0.5313512   1.3390784   0.6207432  -0.8771046  -0.6756168
  -0.2989326  -0.1924223  -0.0072020   1.0423900   0.6937811   0.7560242
   0.2658082   0.6803061   0.9663192  -0.3882957  -0.1251717   0.5642323
   1.1133159  -0.1505700  -0.2370553   0.7335712  -0.4144277   0.5720288
  -0.0870484  -0.2625975  -0.1419866  -0.2000746  -0.3160948  -0.4986830
   0.1650348   0.3560224  -0.0361288  -0.0751771   0.0284873   0.2117498
   0.5358468  -0.2501646   0.8850881   0.5681688   0.2253629  -0.7417257
  -0.2172495   0.0319913   0.1328077  -0.7566692   0.9289639  -1.5139467
  -0.2756764   0.6268309   0.5697844  -0.1125220   0.0198117  -0.3446941
  -0.0122836   0.1173543  -0.1531282  -0.5417402  -0.4155876   0.4912062
  -0.0194913  -0.1586124  -0.0191491   0.2789454   0.3702366  -0.2427173
   0.3741326  -0.3089773  -0.5719778  -0.1475842  -0.3624718   0.1815066
  -0.5759161  -0.3447838  -0.9506332   1.0063249   0.6532720   0.6088093
  -0.0893879  -0.1910188  -0.0122296   0.4958848   0.8583019  -0.5591033
  -0.8681181   0.6488177  -0.4846325  -0.1301239  -0.0341957  -0.0047340
   0.4535069  -0.3189587   0.1456969  -0.0766901  -1.3597703  -0.2439117
   0.3462181  -0.1113242  -0.0488377   1.3147870   0.3587871  -0.1466191
   0.6137936   0.0085772   1.6024679  -0.1507847  -0.0654489  -0.2424572
  -0.8860284   0.0012276   0.5765693  -0.7569985  -1.0661500   1.2139860
   0.4447890   0.1167474   0.0366479  -0.9506629   0.0738963  -0.9382418
   0.5330812  -0.5341344   1.2955830  -0.2815754   0.0194559  -0.3399812
   1.2106870   0.3784187  -0.1999692  -0.2970983  -0.0495284  -0.0177002
   0.2145819   0.6304400   0.2228893   1.2250029  -0.7004126  -0.9808903
  -0.6018410  -0.2249360   0.9133716   0.0386429   0.1362344  -0.0033409
  -0.0721970  -0.4410284   0.3929313   0.6317734  -0.1236401   0.4401489
  -0.2986701   0.3172247   0.0059805   0.5805424  -0.8680428   0.4174475
  -0.6262424  -0.6315549   1.1091533   0.0404721   0.0929981   0.2618005
   1.0804332  -0.1076380  -0.2756302   0.1950336   1.1760139   0.0916197
  -0.3617653  -0.1629919   0.0687019  -0.0789962   0.2901613   0.1638667
  -1.3200017   0.6148725   0.0438981   0.1546796   0.1446331   0.1981106
   0.4212987   0.5622351  -0.1985978  -0.9440854   0.3682693  -0.8239772
   0.1578413  -0.0628127   0.1945548  -0.4840104  -1.4965241  -0.4078059
  -1.1594260   1.4418455  -0.5023556  -0.1340648  -0.1297733   0.0364759
  -2.0373254  -1.4975230  -0.4184272   1.9272809  -0.5760197   1.2605067
  -0.0662074  -0.2690778  -0.0309464  -0.0775176   1.4456935   1.9413922
  -0.4176680   0.1867501  -0.8270850   0.1671726   0.2074531  -0.1937251
  -0.7329284  -0.3404286  -0.2074268  -0.2876586   0.5757403  -0.6389366
  -0.0858613  -0.0844719   0.1077408  -0.2158437  -1.6925851  -1.4021989
   1.5259528   1.4391254  -0.6801631  -0.2774992   0.0156381   0.1071008
  -0.2831219  -0.3053356   0.6561873  -0.1473811  -0.0763397   1.0257574
  -0.0031993  -0.1036850  -0.3445087  -0.1904883  -0.2133274   0.6225725
   0.4924585  -0.1254048   0.3499681  -0.1290242  -0.3042304  -0.1242042
   0.2582945  -0.7727729   0.4725384   0.8211233  -0.4176860  -0.0537002
  -0.0159334   0.1815724   0.1150781   0.3380616  -1.2806859  -0.2064010
  -0.3740018  -0.5328223  -0.5133548   0.1274910   0.0479573   0.2169968
   0.3789047   0.3385318  -0.5976342   1.0024661  -0.4216416  -0.2594701
   0.4229911  -0.1057860   0.2907939  -0.1260750   0.5231998   0.2545581
   1.0573853  -0.5025616  -0.0556751  -0.4268211   0.2364478   0.0614344
  -0.4636321  -0.5392295  -0.8213903  -0.2745938   1.7641091  -1.1598128
  -0.1024645  -0.2873293   0.3003804   0.3360677  -0.9513664   1.0750613
   1.2116354  -0.4195746  -0.5582218   0.1278358   0.0347139  -0.2042676
   1.2283943   0.5865975  -0.3793215   0.5798159   0.4694722   0.8693027
   0.3587501   0.0555858   0.0759346   0.2483624   0.7494952   0.1313201
  -0.1157749  -0.8258618   0.6350279   0.1458104   0.2478187  -0.1079362
   0.2284569  -0.1264061   0.3172548   0.4367243   1.2353779   0.4887609
   0.1389778   0.0533438  -0.0694848   1.7299500  -1.0400661  -0.6484948
  -0.0632658   0.6586679   0.6222950   0.0993081   0.0525378  -0.1007505
  -0.9694706  -0.4668776  -0.1818194  -0.4020054   0.6349247   0.0733233
   0.0172890  -0.2055504  -0.1295732  -1.0661376   0.7325734  -0.4750622
   0.5571790  -0.6681715  -1.2672281   0.1449728  -0.1175238  -0.1958050
  -1.4980184  -0.1426553  -0.0840951  -0.2370451   1.0469105   0.9704602
   0.1808644   0.1192896  -0.3675824  -0.1583907   0.4025663  -0.6438736
   0.7860967   1.2022935  -0.5689093  -0.2286529  -0.2850108   0.1161662
   0.6513335  -0.8892800  -0.4874228   0.4938918  -0.4230729   0.1291022
   0.0773574   0.1225333  -0.2048136  -0.1066471  -1.6128739  -0.0893286
   0.1992329   0.2251678   0.5298570  -0.0865306   0.1186832  -0.0277776
   0.3438708  -1.8933024   0.0588426  -0.1971204   0.6890491  -0.0626890
  -0.2127450   0.0552751  -0.1026596   0.6409560  -0.2895840   0.8101837
  -1.9733607   0.4656334   0.1746800  -0.0597490  -0.0221539   0.0003562
   0.4296146   1.7114186  -0.5100240  -1.7139060   0.8970752   0.4686975
   0.0906011  -0.0006524   0.0673856  -0.9372947  -0.3394410   0.2817356
   0.5229790  -1.1222643   0.0692501   0.0551292   0.1063337  -0.0388167
   0.1689941   0.1024186   0.0237720  -0.8731446  -0.2888314   0.0875742
   0.2869731  -0.4280110   0.1671990  -0.3145700   0.4142420  -0.8118708
   0.8431818  -0.2518438   0.4116648   0.0303281   0.1832833  -0.0310510
   0.3296220  -0.6015203  -0.0688779   0.4372598  -0.7882507   0.2467908
  -0.2101423  -0.0455619  -0.0196458  -0.7069190  -1.2791432   0.6813151
   0.5953925   0.4677649   0.4561709  -0.1060060   0.0492660  -0.0627390
  -0.0849183  -0.0597805  -0.1372724   0.9600674   0.5183994  -0.3780009
   0.0559200  -0.0453211  -0.0866177  -1.0148510  -0.1609768   0.6183099
  -0.3206868  -0.9692662   0.3615620  -0.0081245   0.1366598  -0.1074826
   0.1932231   0.3342963  -0.6178716   0.6365892   0.7044846   0.1451969
  -0.2102363  -0.1265848  -0.1958697  -0.3918812   0.6033905  -0.7348710
   0.6625284  -0.0783965   0.3857290   0.5169876   0.0833241   0.3001132
  -0.0230540  -0.8526412   0.1341734  -0.3830331   0.9954622  -1.2458019
   0.4667944  -0.1435667   0.1218543  -2.2287815   1.7807623   0.5585152
  -0.1544550  -0.7070350  -0.0590633  -0.0701520  -0.3085346   0.2163426
   0.8271289   0.9884243  -0.3777248   0.0794805  -0.8553993  -0.8604386
  -0.1427823  -0.0766840   0.1039062   0.8917244   0.9412429  -1.3513346
   1.9721962  -0.4580052  -0.5181966   0.0494113   0.2425036   0.2358558
  -0.3622985  -0.5720287   0.9692370   0.4895475  -1.1490815  -0.0740252
   0.1440554  -0.2162073  -0.1158307  -0.6744399   0.0627358  -1.2057588
  -0.8170425  -0.6375253   1.2015419   0.0347811   0.3284116   0.2858479
  -0.7053533   0.5296016   1.3558179   1.7099587  -1.4052167   0.8423784
   0.0239402  -0.1909628  -0.0431694   0.5132578   0.8520754  -1.3923812
  -1.2567928   0.5774122   0.3248250  -0.2668211   0.1026262  -0.2017229
   0.3345138   0.1632464   0.5190402  -0.7099856   0.3450049   0.9888068
   0.0740592   0.0623499   0.1825995  -0.5179970  -0.0627110   0.7421117
   0.0357197  -0.2475246  -0.6745357  -0.2995169   0.0045413   0.0589080
  -1.1524502  -1.0422548   0.0893549  -0.2240100  -0.0582893  -2.0552833
   0.1579399   0.0416208  -0.1856810  -1.0890313  -0.1981295   0.0060697
  -0.1932181   0.0269955   0.4394072   0.0516103  -0.1542838  -0.1611911
   0.7074450   1.4294379   0.2506615   0.9020074  -1.3787434   0.4484857
   0.3584158   0.0667670   0.0511031  -0.4625700  -0.6042717   0.2717016
   1.6034054   0.7338176  -1.4022521   0.0250922  -0.1170339  -0.0897848
   0.2118796   1.1432433  -0.0724258   0.5302358   1.0768725   0.6065800
   0.1289991  -0.1293201   0.1653271  -0.0030845   0.9885435   0.2047139
   0.2887046   0.8896343  -0.0903668   0.0481501   0.0658138   0.1715010
   0.0851148  -0.5929072   0.0527654   0.0990586  -1.5839450   0.5785182
   0.3844033   0.0096452  -0.0032114  -0.0508777  -0.6317392  -0.7339084
  -0.6927314  -1.2661812   0.6642917  -0.0380351  -0.2823604   0.0167554
  -1.3654294   0.4040983   0.5525458   0.1346966  -0.6167314   1.1466919
   0.0917382   0.0745021   0.0281957  -0.7309585  -1.1050341  -2.3016264
   1.4798355   0.3114478   1.8459278   0.1790582   0.1634412  -0.0054342
   0.5714182  -0.3297487   1.0174705  -0.0478230   0.3598574   0.4444408
  -0.0766887   0.2719359   0.2618470  -1.4140464  -0.9040375   1.2703947
   0.5847865   0.1382987  -1.0241683   0.2279710  -0.1536574  -0.1914968
   1.8562162  -0.0002826   0.3018740   0.2334852   0.6889209   0.6693036
  -0.3231336   0.2921985  -0.1895542  -0.1838311  -0.0961592   0.7938977
  -0.4484489  -0.4402058   0.1620085  -0.1696225   0.1017230   0.1012770
   0.0564341   0.5726183  -0.3054004  -1.2628214  -0.5361848   0.4809449
  -0.0581459  -0.2543030   0.0709361   0.4060737   0.9266798   0.5011320
  -0.5011252  -1.4858273   0.8132687   0.4768725  -0.0304497  -0.0492274
  -0.3691902   0.0643549  -0.7483984  -0.9704545  -0.3497784   0.5133295
   0.0845532  -0.0887212   0.1505741  -0.0313067   0.2794760  -0.7024044
  -0.2504337  -1.3332645  -0.3984075  -0.0275476  -0.0019015   0.2033122
   0.2587937   0.9736959   1.0876343  -1.2996104  -0.0997076   1.1414114
  -0.1610253  -0.0012951  -0.0127501  -1.1847650  -0.0135591  -0.6038677
   0.0463703   0.5734890   0.6823314   0.3004054  -0.1581198  -0.2276379
  -0.6741767  -1.0203755   1.0283984  -0.0758240  -0.1355297   0.8008071
  -0.0143366  -0.1835722   0.1302842   0.5384842   0.8224009  -0.1712212
  -0.5272631  -1.0838335  -0.0425689  -0.1992299   0.0531304  -0.1340819
  -0.3478646   0.1607978  -0.2265871   1.0722839  -1.1776030  -0.7610806
   0.1773062  -0.2390350   0.1882072   0.3117908   0.1157571   1.3462093
  -0.4250758  -0.4099906   0.9914113   0.1197015   0.1248523  -0.2121003
   1.0794594  -0.1239931  -0.6943211  -1.7262222   0.7636040  -1.0363297
   0.0145573  -0.1537452  -0.0300589  -0.0090335   0.0741022  -0.4061742
  -1.2502393  -0.2369696  -0.4162767  -0.1692705  -0.2639274  -0.0683094
  -0.3755535  -0.0615586   1.1075114  -0.5242528  -0.2639512   1.1832287
   0.2397766  -0.2448065   0.0083137   0.8689364  -0.2951042   0.1787585
  -0.5409595   0.9374475  -1.2341909  -0.1377834   0.1930569  -0.0169550
   0.6725986   0.1564012   0.4366589  -1.0761851  -1.9092158   0.7184001
  -0.0217119  -0.5335813  -0.0504052   0.5466359  -0.3920307  -0.4633567
   0.4945820   0.8926259  -0.4698122  -0.1184319   0.2366184  -0.0278528
   0.9059944   0.8298354   0.4162692  -0.0274642  -0.6642893   0.5989144
  -0.1175187  -0.0615219  -0.2412086  -0.6016749   0.0737998   0.2201609
  -1.7336324  -0.5290809   0.6387202  -0.0189400   0.3023119   0.0028481
   0.0712916   0.3522284   1.2752633   1.1592360   1.2777112  -0.0896117
  -0.0635625  -0.3179649  -0.2283193   1.2522424  -1.4034035  -1.0656862
   1.0858608   0.4365107   2.3371787  -0.2042141   0.3262224  -0.1193734
   0.1740765   0.7342969  -1.0762570  -0.4518883  -1.8286283  -0.2354211
  -0.0008156  -0.0006273  -0.0763969   0.5906847   0.7371258  -0.8076659
   0.4471394  -0.5952798   0.6724036  -0.0408854   0.3504234  -0.3912515
   0.0275587  -0.0995506  -1.1980140  -0.5113471   0.4462735  -0.9283715
  -0.0389141   0.0693076   0.0186066   0.1842666  -0.2453109   0.3104245
   0.1141104   1.0729204  -1.7396513  -0.0353742   0.0589483  -0.0366072
  -0.5991448  -1.4040436  -0.2722914  -0.8666653  -1.1412677   1.1769739
  -0.2458004  -0.2184150  -0.0190019   0.8127520   0.7378659   0.6356537
   1.3606244  -2.6899190  -0.2469811  -0.0396066   0.2368043  -0.1421456
  -0.2380184  -0.0974291  -0.2866855   1.4942670  -0.5929437  -2.0035119
  -0.2650983   0.1404113  -0.1716076   0.1975218  -1.7736429  -0.8229357
  -0.1500968   1.2564766  -0.9557722  -0.1451700  -0.3282895  -0.1094229
  -1.0660257  -1.7229770   0.2779644   1.0481038   0.2021428  -0.4447309
  -0.1074460   0.1046503  -0.1369133  -0.0887853   0.6970510  -1.1687256
   0.7264585  -1.2601870   0.5724667  -0.0633590   0.2310176  -0.1101081
  -0.5647843   1.3185841   1.0107504  -0.1293503   0.0775724   0.6579272
  -0.1109409   0.2034690  -0.3644040  -0.6518691  -1.0501629  -0.1573925
  -0.2429504   0.1029203   0.2840257   0.4056424  -0.2425715  -0.0542046
   0.0945377   0.4819202  -0.3534085   0.6737802  -1.2074037  -0.8421569
  -0.2708378   0.1707427  -0.0616903  -0.2656639  -1.1895134   0.9267393
   0.3966346  -1.0306770  -0.0683662   0.0553598   0.1234433   0.0091944
   1.0020100  -1.4046919  -1.2574834  -0.6806033   1.4242057  -0.8639322
  -0.0322026   0.0055057   0.0467673  -0.1984104   0.4785072   0.3482616
  -0.4035200  -0.6589099  -0.0750611  -0.1476407  -0.2240097  -0.0346633
  -0.4615427  -0.7787171  -0.5976673   1.4346104   0.7867841  -0.8232758
   0.1225825  -0.1871431   0.4507406   0.6778441  -0.3769469  -0.6930075
  -0.5567107  -0.1596028   0.0558481  -0.2980120   0.1132816  -0.2815743
   0.6427276  -0.7231060   0.0568769   0.6948858  -0.9961331  -1.4208734
   0.2192417  -0.0151172  -0.2914894  -0.1848369   0.7066393   0.8467238
  -0.8146628   0.2449599   0.2425651   0.1344644   0.1341929  -0.0557910
  -0.0693969  -0.7582430  -0.6678461   1.1512371   1.0997856   0.8076696
   0.3831900  -0.2738422   0.0016582   0.2599109  -0.3529348  -0.1116506
  -1.4568191  -0.3841259  -0.1975915   0.0631254  -0.2193327  -0.1381073
  -0.3899627  -0.3373720  -0.5816941  -0.5510207  -0.4294012   0.9998537
   0.3650650  -0.0130901  -0.1237824  -0.1077983   1.4797413  -0.6189610
  -0.3203252   0.0642964  -0.0607986   0.0029688   0.3145869  -0.2134966
  -0.0436343  -0.4302062  -0.2064607  -0.0383424  -0.2836466   0.6296303
   0.0125983  -0.1381524   0.0367439   0.4573768   0.9258594  -0.2749704
  -0.3617963   1.1321461  -0.8813905   0.2512933  -0.0124815  -0.3299759
   0.1862438   0.1816771  -0.8317084   0.0813920   1.1877835  -1.4732403
   0.0477793   0.0668261  -0.0500533  -1.2859480   0.0890494   1.3401910
   0.5785375  -1.1227424   0.1855320  -0.1559580   0.2022579   0.2006960
   0.6196344   0.0914007   0.5898299   0.2136368  -0.2307322   0.5581504
   0.2212572  -0.1309450   0.0677739  -0.1783950   0.5097405   0.0567227
  -0.4019123  -0.4349541   0.0235434   0.2359364   0.2192730  -0.0964362
  -0.9735287   0.0516723   1.3100777  -0.6891330   1.4178907   0.2696253
  -0.0818591  -0.1956241   0.0096967  -0.3504427  -0.2754098   0.4133920
  -0.9019184   1.3375601   0.3043626   0.0878809  -0.1156880   0.2800152
  -0.5393872  -0.2984932  -0.0248129   0.0613108   0.9196464   0.9537603
   0.0156282   0.0253453  -0.2520301  -0.2814607   0.6259949   0.3697450
  -0.0647000  -0.3642988   0.5956175  -0.0688826  -0.0053640  -0.2667354
   1.0313530  -0.9188327  -0.4468265  -0.0187251   1.1644586   0.8279452
   0.1311273   0.0939673   0.1135467  -0.4013121   0.9099841  -0.1460466
   0.3722019  -0.5833870  -0.2646448   0.0510675   0.0704412   0.0836204
   1.6311699   1.1880430  -0.5184028  -0.4038199   0.0745456  -0.4220488
   0.0113131  -0.0797692  -0.0009712  -0.2034217  -0.2820894   0.0570599
   0.1440746   0.4426289  -0.3211085  -0.1110143   0.2531694  -0.0734364
  -0.5164558  -0.2764617   0.5234387   0.0777212  -0.8843687   0.9819802
  -0.5165669   0.2786779   0.1292049   1.3113645   0.1147483  -0.5980083
   0.3285269  -1.8589127   0.6627954   0.3733126   0.1163798   0.1233092
  -0.4892094   0.7578931  -0.2769846  -0.8196729  -0.4013053  -0.9827592
   0.4001036  -0.0018601   0.1407850   0.9143649  -0.6258243   0.3760455
   0.3055992   0.9180648  -0.7711945  -0.2689429  -0.0205748   0.1244270
   0.7355577   0.5248215   0.8157733  -0.8846232   0.3940598  -0.0918275
   0.0422331  -0.2144037  -0.2236244  -0.0650893   0.0823220   0.6479829
   1.6831276  -0.5380750   0.7426825  -0.3984936  -0.1806475   0.1125489
  -0.3012814  -1.0792850  -0.4133699   0.2249861   0.8765132  -0.5416997
  -0.1186450   0.0292868   0.1751326   0.2102811   0.6005566  -0.2004739
   1.2856354  -0.7546479  -0.7076453  -0.0511313  -0.1662920  -0.2668930
   0.0616201  -0.3681109   0.2231387   0.0214995  -1.4775982  -0.4733033
   0.0114675  -0.2375808  -0.1518753  -0.7428575  -0.1705050   0.3959031
  -0.3148061   0.1137000   0.3444852   0.3294734   0.0278071  -0.2087303
  -1.2904116  -0.7829303  -0.0023128  -0.0524801  -0.3933971  -0.6296979
  -0.0940029   0.1270810   0.0925784   1.2146286   0.1175462   1.1102419
  -0.1451557  -0.0728924  -0.7585701  -0.0945066  -0.0849193  -0.2908852
   0.1954198  -1.0462862  -0.5253041  -0.4469519   1.2404231  -0.3805203
   0.2175191  -0.1871262  -0.1141838  -0.4687506   0.5734574   0.5331840
  -0.0652684  -0.8383093  -0.1096132   0.1856750  -0.0615228  -0.2206475
  -1.2183733  -1.2245231  -0.0588646  -0.9727840  -0.2440400  -0.1082122
   0.0308665   0.3695318   0.0081903  -0.3919696   0.8547991  -0.0905705
  -0.1624205   0.5925940  -0.5610410  -0.4450115   0.0811879   0.0146450
  -0.1640960   0.5997615  -1.0556928  -1.5090944   0.6280605   1.0266817
  -0.2577901   0.0703897  -0.1325743  -0.4127486  -1.1305509   0.4106277
   0.2258358   0.7234458  -0.5045713  -0.0354504  -0.2242192   0.1198062
  -0.2568395  -0.3626516  -0.1195410  -0.1844204  -1.1915880   0.4607633
  -0.1273081  -0.1144245  -0.3281341   0.2858844   0.4553447  -0.3541585
   0.1113484  -0.7488300  -0.1325102   0.3445766  -0.2396310  -0.1477070
   0.1352685  -0.5050164   0.8311818  -0.1605013  -0.8044443  -0.5765074
  -0.2002366   0.1821484   0.1867317   0.6172690   0.9304742   0.6728278
   0.4553681  -0.2888470   0.0394404  -0.1545145  -0.0094903   0.5453696
   0.8816047   0.7492114  -0.3204234  -0.8174060  -0.8698993  -0.8085623
   0.0065461  -0.2007824   0.3171561   0.6077332  -0.1663348   0.4519049
  -0.9258693   0.7880415  -1.6122757   0.1967722  -0.0817389  -0.0408762
   0.1370252   2.1089799   1.7440112  -0.1732031   0.0268469  -0.7443411
   0.2662256   0.0625928   0.1043472  -0.0098148  -0.0114051  -1.2564536
   0.8306729   0.4325519   0.1358502  -0.0186915   0.4273624   0.0809175
   0.9889777   0.7246336  -0.2460267  -0.2714321  -0.9259420   0.3193904
   0.0965779   0.4137981   0.2952398   1.1854622   0.3806700   0.1018987
  -0.4912118   0.9702157  -0.4412502   0.2243987  -0.2598240  -0.1272147
   0.4760980   0.0356220   0.7510656   0.2736175  -0.1290869   1.2547481
   0.3819634   0.3469271  -0.0342727   0.5534077  -1.6902561   0.2892694
   0.9322976  -0.9962801   0.3777910   0.0521255   0.1183314  -0.0519988
  -1.1361009   1.1209952   0.7725546   0.1401411   0.3516781  -1.0731971
   0.0985998   0.1530744  -0.2574126  -1.2395600   1.5159988   0.4077881
   0.9508160   1.0939149  -0.1477282   0.0777990   0.1496970   0.1616280
   0.7729275   1.3364094   0.1206124  -0.4846299   0.0849261   1.0030390
  -0.3619912  -0.1245068  -0.3060432   0.3783273   0.1040117  -0.3688423
  -0.6890884   0.8185579  -0.2189953   0.5299869  -0.2589568  -0.3598445
   0.3230968   0.8076852  -0.7482943  -0.4628515  -0.3165766  -0.6453349
  -0.0240320   0.2527649  -0.2841311   0.2621999   0.3309105  -0.9899356
   0.0247112  -1.2325929  -2.0750487  -0.0011488  -0.1566974   0.3440320
   0.7428148  -0.5111138   1.6910932   0.7567987  -0.2477354  -0.5845571
   0.2308871   0.1036637   0.1034774   0.5648689   0.0793224  -0.3645662
  -0.7054936  -0.5976758   0.4504496  -0.4589882  -0.0487647   0.0460931
   1.5707374   0.6923974  -0.3385113  -0.5910910   0.2427751  -0.3458955
   0.3189917   0.0212507  -0.0375660  -0.0068411  -1.3113731   0.2252664
  -1.0014819   0.5186205   0.8012313   0.4113969   0.2077240   0.1867507
  -0.4844737  -0.1310395  -0.0974234  -0.5749421  -2.3914711  -0.6625278
   0.1308360   0.3256618  -0.0370996  -0.9059380  -0.8980628   0.0051582
  -0.6924284   0.2732024  -0.3716436   0.0299206   0.1362835   0.1202601
  -0.4780581  -0.2985682   0.3150696   0.6238413   0.5501239  -0.5170211
   0.1235931  -0.3987213   0.0172442   0.7759844   0.6113635  -1.1360765
   0.0854816  -1.1800185  -0.6278901   0.0177385   0.0496562   0.1124106
   0.5891140  -0.6361672  -0.9046375   0.7871476  -0.2701608  -1.2876918
   0.0451592   0.1746771  -0.2493012  -0.8864843   0.4000295   0.1078132
  -0.0439493  -1.5234437   0.0933887  -0.1635142   0.4048538  -0.2014165
  -1.0496817  -0.5144104  -0.3084701   0.6558205   0.7900072   0.0336473
   0.0689285  -0.3588790  -0.0762068  -0.8276177  -0.2048646   2.1223533
   0.6651905   0.3652269  -1.4524391   0.0463963   0.0329725  -0.0207356
  -0.7178703   1.4906678   0.9627723  -0.8134801  -1.2677096  -0.2697991
   0.2648697  -0.2021509  -0.0374983   1.0066179   0.4885137  -1.1691455
  -1.7207937  -1.1292610   1.1640164   0.0069244  -0.0004787   0.1233153
  -0.8513993  -0.7150095   0.3378285   0.8152357  -0.7520750  -0.1957502
  -0.1191574   0.1984002  -0.0915719   1.4001957   0.3683088  -0.1966030
  -1.4405870   0.3822656  -0.1967813  -0.2616559  -0.1487945   0.2964472
   0.6231343  -0.3149352   0.1047801   0.1737257   0.7872127  -0.7693394
  -0.2056815  -0.2959353  -0.0929083   0.9741448  -2.0676911   0.4081366
   1.1322045   0.0808380  -1.6522425   0.2786594  -0.3029538  -0.0335983
  -0.7132763   1.6208489   1.1546211   0.3695688   1.0271378   0.3826216
   0.1329864   0.0207618   0.2371956  -0.1005641   0.0320467   0.6486792
   0.0927606   0.5276405   0.2697284   0.1156735   0.3703420  -0.1151258
  -0.0576623  -0.3146877   1.1991153  -0.7103611   0.3921095   0.2476305
   0.0632894   0.0885450   0.0246827   2.4908257  -0.4986187  -2.0546453
   1.4272646  -0.9876769   0.0330978  -0.3363034  -0.0454390  -0.0917141
   0.3943500  -0.8689657   1.1424565  -0.8632249  -0.3822489   0.6969496
  -0.0010721  -0.4094602  -0.1856111  -0.5599998   1.2484177   0.3105593
  -0.1946204   0.2695636   0.7961280  -0.0963364   0.0857960  -0.1183098
  -0.9535991  -1.5755957  -1.0592852  -0.6993510  -0.7953147   0.2755407
  -0.1252515   0.1538251  -0.1930907   1.0480658   0.0145104   0.3943495
  -0.1237705   0.4612440  -0.7434793   0.2680967  -0.1174339   0.0679798
  -0.1749274   0.4734380   0.8076354   0.0284490  -0.4510838  -0.3336674
  -0.1885602   0.0525250   0.0699709   0.1383715   0.2869534   0.5635524
   0.3515264  -0.1678919   0.3611028   0.2700090   0.2218876  -0.1715465
  -0.0883837  -0.7720229   0.9325878  -0.7904716   0.3162661  -0.4102921
  -0.0609468  -0.2376895   0.0315966  -0.5584874  -0.3614398  -0.6673682
  -0.7586336  -0.9732470  -0.0561719  -0.1827929  -0.2383181   0.0560361
   1.0257252  -0.5553366   1.9340353   0.2064106  -1.1078318   1.1762707
  -0.0645230   0.0006117  -0.2499603   0.7467914  -0.7965359  -1.0535223
   0.6746566   0.3679426   0.0666553  -0.0063276   0.0818965   0.0465635
   0.7759882  -0.4310111   0.6223619  -0.7063801   0.4087202   0.1948172
   0.1847044   0.3266515   0.1221369   0.2106736  -1.3305712  -1.6720030
   0.7976251   0.4393955  -0.7384588  -0.0666787   0.5192219   0.1472144
  -0.0543905  -1.5450249  -0.4777232   0.5945762  -0.2049327   0.3437310
   0.2996559   0.2516801  -0.3825431  -1.2364870   0.7979826   1.4733114
   0.2172650  -1.4638405  -0.0124795   0.0026207   0.2867907  -0.1657423
  -0.0353823   0.4347127  -0.7962379   0.7988833  -0.6799481  -1.6799543
  -0.0182996  -0.0264024  -0.3613499   0.2299589  -0.7772792  -1.3792468
   0.4591805  -0.5973391   0.5702539  -0.2551898  -0.2665622  -0.0137116
  -0.2268319  -0.6446331  -2.2124903  -0.0638043  -1.0391060   1.1683547
   0.0419581   0.1189483  -0.1747504  -0.4556064  -1.0912330  -0.8715876
  -0.4342760  -0.3688488  -0.6749366   0.3032671   0.2722186   0.0017956
  -0.1255277  -0.0509709   0.2283135   0.5862132  -0.3910314   0.9547741
   0.5034788   0.1693633  -0.2295620  -0.7127975   0.7206258   0.4074636
  -0.1258822  -0.2772173  -0.7349196  -0.0351585  -0.3595607  -0.1290567
   1.6514333  -0.8525311  -1.2571934   1.0906214   0.4542821   0.3499651
  -0.3342033  -0.0135988   0.0129908  -0.0946571  -0.7486590   0.2387045
  -0.5286107  -1.0118519  -1.0493809  -0.0990315   0.2648154   0.3550916
  -0.0708201  -1.2823181   0.7983240   1.4068075   0.5103106  -0.8884854
  -0.1052838  -0.0402176  -0.2244180   0.6723333   0.3490720  -0.3188846
  -0.0770126   0.2172828  -0.4953351  -0.2333243  -0.0707610  -0.1584052
   1.9914366   0.1921811   0.5415418   0.3690281   0.4835590  -1.1066533
  -0.1094114  -0.0292483  -0.0734873  -0.5418161  -1.8290811   0.9674487
   0.7548631   0.5067323   1.3392642   0.3982418  -0.1802344  -0.3544794
   1.3917944  -0.1240495   0.8855783  -0.8689808  -0.6171243  -0.2757450
  -0.2749410   0.2314756   0.0566059   0.3295484  -0.4053084   0.0020863
  -0.2549899  -0.0370287  -0.3586252   0.2249837  -0.0689255   0.2967664
  -1.2184305  -0.7996317  -0.5195634   1.0679743   0.8133082  -0.5939592
   0.0815022  -0.2409354  -0.1765679   0.3137101  -0.2460045  -0.6750132
   0.2792551   0.0472799   0.2205476  -0.0775103   0.2388365   0.1604964
  -0.5298710  -0.4684990   0.2214608   0.2931783  -0.5311884  -0.5553769
  -0.0289585   0.1874972  -0.1622437  -0.6757808  -0.6906753  -0.3807509
  -0.0937175  -0.9678636   0.3284550   0.0024361  -0.0874509  -0.0089800
   1.2451460  -0.8640071   0.6583139   1.0497885   0.3075007  -0.7207818
  -0.0806063  -0.2232797   0.0285224  -0.0201596   0.4000923  -0.6934707
   1.5268240   0.9309254   0.8058586  -0.0326880  -0.1638167  -0.3754840
   0.0479652   1.6870004   1.6081479   1.0403007  -0.9023158  -0.3196788
   0.1508269   0.0159442   0.1629239   0.2630416   0.2136274  -0.1298061
  -0.3173619  -0.5461128   0.3791585  -0.0300124  -0.1260745   0.0136405
  -0.7596704   0.5372176   1.1234648  -1.5013009   0.3151496   0.3453077
   0.4121921   0.0706884   0.0639156   0.1406793  -1.6002846   0.5652763
   0.4448102  -0.5597143  -0.4929475   0.2541239   0.2544373  -0.0433432
  -0.2814320   0.5370175   0.7608885   0.2385985  -0.0055627  -1.6798259
  -0.0981389  -0.1123065  -0.1469880  -0.3713959   0.8480690  -0.1495203
   0.9082540  -0.1278738   0.0785365   0.1213861   0.0132134   0.0513050
   0.6942375   2.7868145  -0.2209152  -1.3306125  -1.3562239  -0.3441902
  -0.2250855   0.1849143   0.0299743  -0.4107159   0.6220401   0.2313584
   0.3086042  -0.2965760  -1.2314367   0.1038409   0.2317598  -0.1144100
   0.3645183   2.8545597   1.9445362   0.2145525   0.6728360   0.7562969
   0.1950329  -0.1823877  -0.4192654  -2.9800892  -0.1529817  -0.1770498
  -0.4526245   0.9587926   0.1309622   0.0850736   0.2019769   0.1128193
   1.2053003  -1.6463298  -0.3958184  -0.3104009   1.4452312   1.0375279
  -0.1547409  -0.3503347  -0.0398602   0.6835312  -0.0156222  -0.9986508
  -0.8209057  -1.6262863   0.4220375  -0.1061012  -0.2508303  -0.0802979
  -0.9854705  -0.2609245  -0.9758095   1.3250519   1.0454577   0.4178439
  -0.3198040   0.0738565  -0.1766651  -0.0047908   0.8295498   0.7321355
   1.0679494  -0.0005088  -0.2836316  -0.2444919  -0.3883983   0.0613051
  -1.4668365   0.8328994  -0.0822943  -0.1782021  -0.8863960  -1.0355401
   0.2636098   0.1878559  -0.1904929   1.0495917   1.9239600  -0.5288395
  -0.1109948   0.8241298  -0.0132754   0.1388362   0.0760072  -0.1932524
  -1.2191366  -0.4149997  -0.1731747   0.0838661   0.1583465   0.6877422
  -0.1362429   0.0806419  -0.0226067   0.2006483  -0.8168402   0.2449399
  -0.4219772  -0.3081307   0.0678393  -0.2656637  -0.1261394   0.1900216
   0.2416012   0.4448817  -1.5315454   1.6375666   1.2169473   0.7393486
  -0.2102764   0.0435440  -0.0195586  -0.0043011   1.7366725   0.6220684
  -0.4268576   0.2361762   0.8663573   0.0852775   0.3634743   0.3078420
  -0.2532932   0.7462026   1.2412871   0.1385934   0.6293032  -0.1581321
   0.1551932   0.1491449  -0.1697997  -0.3934836   1.0187715   0.4087934
  -1.8691596  -0.7293689   1.3644220  -0.4310639   0.1743839  -0.3341886
  -0.5485819  -0.1484026   1.8395772  -0.0529124  -0.5935798   1.4667510
  -0.0735572   0.3722384  -0.2875766  -0.7270866   0.1040000  -0.4135992
  -0.0581229  -1.4147013  -0.0258715   0.0202137  -0.0415890  -0.1145051
  -0.6436800  -0.0075177  -0.2450522   0.0558181  -0.0264078  -0.8395686
  -0.1116925  -0.0174881  -0.2296650  -1.4931278   0.0932317  -0.9081427
  -1.4041039  -0.1763320  -1.4335532   0.1476061  -0.1179098  -0.2603834
   2.0227351  -1.1516043  -0.9597437   0.5872598  -0.9644704   0.0273844
   0.0720791   0.0494800   0.0661082   0.3929116   0.3776382  -0.7192962
   0.6417280   0.1522917  -1.2166630   0.1970587  -0.0144265  -0.1414710
  -0.1965062   0.0182570   0.5289357   0.2992130  -0.2165944   0.3970112
  -0.0016673   0.1637190   0.0859927  -1.9505210  -0.6510518  -1.4332762
   0.9414418  -0.3226933  -0.0388507  -0.0250578  -0.0796440  -0.1410625
   0.6331216   1.0213133  -0.1252269   0.5275641  -0.1769510   0.2405449
  -0.0796223   0.2117071  -0.1795353  -0.4591674  -0.3115447   0.0750131
  -0.3585766   0.7917665  -0.8081651  -0.0984572   0.2509019  -0.0783548
   1.0202794   0.3146355   0.9378979  -0.5568566  -0.4970443   0.9206691
  -0.2358294   0.2654872   0.0668663  -0.0414342  -1.5197455  -0.6611598
  -0.1307616  -0.2488840   0.5940854  -0.0802065  -0.2236750  -0.0153981
  -0.2641894   0.8285633   0.4676054   0.6610090  -0.1761390   0.2260968
   0.0447757  -0.0068720   0.3302498   0.4711282  -0.2194996   0.3630118
  -0.3453454   0.9020991  -1.0311409  -0.2724142  -0.1082374  -0.0112195
   0.1774918  -0.5433906   0.2070967   0.0439012  -0.5338937   0.1280597
   0.0924382   0.1532499   0.2246390  -0.6803000   0.1772487  -1.1781354
   0.7036115  -0.1031239   0.4960564   0.1315830   0.2739645   0.2627515
   1.2862127   0.3538878   0.9778395  -0.9992831   0.8336480  -0.5799982
   0.1846039  -0.2809346  -0.2250295  -0.2793277  -0.6775451  -0.2611473
   0.1863103   0.2567757  -0.5024417  -0.1649193   0.3064983   0.2225475
   0.2835043  -0.0947295   0.0537247  -1.0211003  -0.1692734  -0.1361289
   0.3445982  -0.1702616  -0.2226147  -0.2851882  -0.6259313   0.7425838
   0.4663657   0.5869000  -0.4322811  -0.1036524   0.0540556  -0.2940467
  -0.3471649  -0.0653121  -0.0282409   1.4224635   0.1930868   0.7240438
   0.3105173  -0.1963737  -0.1911519   0.4196323  -0.5990940   1.6012766
   1.0581346  -0.6067742   0.8278003  -0.0710414  -0.1141749  -0.0887588
  -0.3902075  -0.0251030  -0.1714678   0.5225978   0.7668058   1.2296590
   0.2220944   0.2276284   0.2647443  -1.1641214   0.3845429   0.4161589
  -0.6712150   0.0408570  -0.1461805   0.2081576   0.0920753  -0.3761495
   0.2089493  -1.0150433  -1.3303558  -0.7027436   0.2751495   0.3032532
  -0.0060745   0.0447237  -0.1119723  -0.5713448   0.8291257  -0.2378450
   0.6277934  -1.7972182  -0.7969030   0.0510181   0.1976443  -0.1531495
  -0.7549690   0.7852203   0.4072480  -0.9147654   0.5972990  -0.2796462
   0.3744441  -0.2220925  -0.1043344  -2.4114971  -1.3886859  -0.8503171
  -0.5961044   0.6517624   0.6569058   0.1812955   0.1510412   0.0206354
  -1.1430449   0.0251684  -1.1543299   0.7015495   0.6339903   0.1989541
  -0.0477941  -0.1397220  -0.0217794  -0.0521989   0.3476640  -2.0306170
   0.2937828   0.3784671  -1.0511823  -0.3379388  -0.0935391  -0.1562113
  -0.6896687  -0.6675353  -0.4967420   0.1913874   0.6160181   0.7594948
   0.0543872   0.2282145  -0.0036637   0.3950053   0.5975654  -1.3610095
  -0.5530896  -0.1446700   0.8916578  -0.1428114  -0.0564848   0.2606362
  -0.5908798   0.2436529  -0.2825832  -1.9580336   0.1906217   0.8356841
   0.2035146  -0.3816657  -0.1927835   0.6155159   0.6321006   1.3040669
   0.7059333   0.6334957  -0.0784320  -0.1421370  -0.0772915  -0.0573769
   0.1453614   0.4706365   0.6915341  -0.1825330   0.2387254  -0.6383970
   0.0408677   0.1523044   0.1812652  -0.5113091  -0.0621663   0.1819245
  -0.3643292  -1.0117608  -0.5675212   0.0362682  -0.0103722   0.2373586
  -0.1343133  -0.3061319   0.2230265  -0.4229298  -1.4634285  -0.5432724
   0.0124990   0.3947519  -0.1431659  -0.1347923   0.1834492   0.4216010
  -0.1920596  -0.4754968  -1.6578315  -0.1966335   0.0209280  -0.0455314
   0.1148484   0.4090840  -1.0675910  -0.9468597  -1.1964293   0.3641739
   0.1608362   0.0342522  -0.1113865   0.5164024   0.3934174   0.5801965
   0.4873362  -0.4992475   0.0498335  -0.1647431  -0.0857668  -0.0402710
   0.2983581  -0.0730515   1.6862646   1.0288994   0.9209338   1.2491782
  -0.0244524   0.0765511   0.2008543  -0.7183891  -0.3323458  -0.6632805
  -0.1582869   0.9030521  -0.2101358   0.0912107   0.0901778   0.1447060
   1.3649645   0.6055473  -0.6870039  -0.7930899  -0.7943995  -0.9802945
  -0.0891442   0.0820291   0.0834071   0.0697351  -0.5768746  -1.1144533
   0.2928689   0.1569767  -0.2443344  -0.2504099   0.2725607  -0.1841955
  -0.5688898   0.7468922  -0.5483238  -0.4305207   1.2892381   1.2277532
   0.0908359  -0.0247183  -0.1854837  -0.7060561   0.6041353  -0.5909202
   0.7544217  -0.6036177  -0.8710180  -0.1435450   0.1905477   0.0457988
   0.2768569  -0.8921804   0.6136138   0.4353369  -0.7218004   0.1798179
   0.0496690   0.0137944  -0.2992648   1.0679086  -0.6410804   0.5395715
  -0.2602945  -0.3434259   0.8598159  -0.3888604  -0.1237189  -0.0336520
   0.8351790   1.1876012   0.7959437  -1.2840480  -0.0572733  -0.9230636
  -0.1985127  -0.3204598  -0.2510005   0.0198744  -0.2024033   0.7919402
   0.2795939  -0.6260235   1.9420732  -0.1412732  -0.3626947  -0.0043388
  -0.3626944  -0.9188447   0.0243854  -0.9447582  -0.3824260   0.3028798
   0.1215348  -0.3742136  -0.0973209   0.8567299  -1.1819348  -1.3199656
  -0.4201625  -0.2799306  -0.0605691   0.0139274   0.4013386  -0.0878456
  -0.1006609  -0.1515708   1.8613776  -0.0130509   0.8272119  -0.2327277
   0.0434968  -0.3731928   0.2336418   0.6252964  -0.5877532   0.0033424
   0.3928811   0.1937530   0.3052702  -0.0389159  -0.2914312   0.0287069
   0.0468543   0.6201298  -0.4909133   0.6475567   0.2515897   0.6915683
  -0.1884353   0.0539487  -0.1260027  -0.1662288  -0.6458964  -0.8222012
  -0.6719550   0.9807781   0.8224402  -0.0948440   0.0195338   0.0035729
   1.2187912   0.6273628  -0.7846678   0.0040438  -0.8838626   1.2599317
   0.3663136  -0.2934716  -0.1143330   0.7866606  -0.2694254   0.7508847
   0.4778788  -1.0242125   0.0889450   0.0552584   0.1542742  -0.0354734
   1.0752274  -0.8858598  -0.0514435  -0.3703241  -0.5357504   0.5103345
  -0.0024872  -0.0318790  -0.1897770  -0.0704493   0.5660524   1.8354926
   0.2556458   0.7042512  -0.9004052  -0.3156891  -0.2567412  -0.0819575
  -1.0288821  -0.3828152   1.5784290  -0.8454250  -0.4371143   0.0670885
   0.2913560   0.1683504   0.0488643  -0.2842947   0.6547015   0.0445836
   0.1956678  -0.0669564   0.9493714   0.0222683  -0.0043760   0.0243116
   1.9418521   0.2002114   0.8150837   0.5278909   0.3961134  -1.4703872
  -0.0026287   0.0516397   0.0614997  -0.1753177   0.3400858   1.5200616
  -0.8638657  -0.3243289   1.1083008  -0.1141559   0.0244311  -0.2116327
  -1.0200138   0.5960720   0.2896881   1.1150531  -0.0435084  -0.9415277
   0.0914159  -0.2628202  -0.2543344   0.1373904   0.7638915  -0.9763683
  -0.3667525   0.6466074  -0.1684734  -0.2974228   0.2516060  -0.1551862
  -0.2346828  -1.8806480  -0.0726291  -0.2324799   0.2141069   0.6256337
   0.1146462  -0.0516779  -0.0579208   0.3597994  -0.1045762   0.0549473
   0.1693189  -0.1922330  -0.1568259   0.0080232   0.1415793  -0.3593026
  -1.0637211   0.3536676   1.1922003  -0.6799668   1.4043200  -0.3018462
   0.2367851  -0.1975536  -0.0412417   1.1791996  -0.4008995   0.0915801
   1.3723209   0.0935231  -0.2648120   0.0217731  -0.1856950   0.2154875
   0.1990944  -0.3286928  -1.8409629   0.1212810  -0.2864368  -0.2029857
  -0.0266334   0.1695078   0.0063925   0.8611981   1.6709130  -0.6467822
  -0.0529972   1.3260483   0.7203137   0.3803142  -0.0629748  -0.4486642
  -0.7616806  -0.6192467  -0.1094599  -0.2123155  -1.1335368   0.5777324
  -0.0445221   0.0207080   0.3037466   1.2854600  -0.2553730   0.1973872
   0.3306607  -0.6177590   0.2127000  -0.3076530   0.3139849  -0.0131230
   0.3506102   1.0094789  -0.1925623  -0.8263487  -0.0100122   0.2006881
   0.3975185  -0.2393119  -0.0103895  -1.2408125   0.8411087   0.2468944
   0.2900593   0.0598139  -0.2054597  -0.2333759   0.0082637  -0.3174539
  -0.3453641  -0.5576693   1.0677865   0.4158426  -1.5282804  -0.1846671
   0.4590083  -0.2018687   0.4000647   0.6907545   0.3450374  -0.6695399
   0.2926675   0.6562814   0.1606013   0.1206241  -0.0572921   0.3077328
  -0.1948145  -0.1730085  -0.1645172   0.1435349   1.6984786  -0.4825060
  -0.2083458  -0.1369681  -0.1494444   0.1960741  -0.0058204  -0.0873472
   1.5776919   0.6120704   0.0179808   0.0383640  -0.0312411  -0.0960706
  -0.8652753   0.3788920   0.2818901   0.4632205  -1.4194806   0.9239759
   0.4507738  -0.0902649  -0.1811042  -0.5326674   0.3654497  -0.0472829
  -1.2380104   0.5879498  -0.5971902  -0.0468521  -0.0623707   0.2017569
   0.3965866   0.2698859   0.6801655   0.0996786   0.5378863  -0.6445191
  -0.1171137   0.1536877  -0.0960884  -0.4475332  -0.2632203  -0.6832122
  -1.1631513  -0.4012415   0.5357808  -0.1594664   0.0266608  -0.0039693
   0.2121374   0.4736973   0.4059008  -0.1576535   0.0048713   0.8377759
   0.0861626   0.1135726   0.0874959   1.0204391  -0.9705437  -0.0002554
  -1.1584554  -1.2925749  -1.2403256   0.0070548   0.0371850   0.2156507
  -1.0131315  -0.0813188   0.0211435   0.6563824  -0.4054350   0.4679254
  -0.3687860  -0.0050318  -0.4362338   0.0460997   0.3519811  -0.4604227
   0.2431872  -1.1473076  -1.6111881  -0.0272042  -0.0051591   0.1822824
   0.9979806  -0.5931891   0.0859863  -1.8250253  -0.5137369   0.7045611
   0.0688271  -0.0780890  -0.1859186   1.6658709   1.2277586   0.0384320
   1.0418464   0.2963313   0.3782279  -0.0243640  -0.0208278   0.1383844
   0.3093059  -0.4695993   1.4755105   1.3710591  -0.2286006  -0.1673215
  -0.1926570  -0.3500484   0.1636395   1.0135607   0.3800059   0.2375595
   0.8613299  -0.6538945   0.6476759   0.0738025  -0.1249996   0.2889053
   0.7696570  -0.1983731   0.3831102  -0.1624868  -0.2980570  -1.0803927
  -0.3510179   0.0779245  -0.0854588  -1.1132385   0.8137198   0.0970928
  -0.6043656  -0.7189854   1.0288225   0.0057213   0.2131068  -0.0219695
  -2.2612391   0.2491763  -0.6489360  -1.1512067   0.3546169  -1.5547801
   0.0202328  -0.2430580  -0.0965598   0.1930696  -0.9840301   0.9764270
  -0.2147318   0.2581691  -0.0172598   0.2182392   0.2602654   0.0682304
  -0.5554768   0.3940338  -0.9857785  -0.9892820  -0.9227934   0.3796390
  -0.1572943  -0.1060234  -0.1666209   1.9524341  -0.5188653   0.0740187
   1.1859139   0.1493351   1.6418979   0.0558429   0.2151309  -0.0544035
   0.8368561   0.1167879   0.5361487  -0.4652706  -0.2939869   0.0329134
   0.1563245   0.2747659   0.4446558   0.9746774   1.3799771   0.3363417
   0.7429047  -0.2124774  -0.8248078  -0.1781048   0.2033275   0.0523024
   0.3870962   0.2166232  -0.7010313   2.4424267  -0.0050219  -0.9966797
  -0.3916700  -0.1395703  -0.0930328  -0.2985674  -0.9013649  -0.2480711
  -0.8707483  -0.3086431  -0.3721108   0.1680920   0.0238871  -0.2999587
   0.8492242   0.4086390   1.9715931   1.0067817  -0.1643606  -0.7982019
  -0.0825408   0.3067118  -0.0843947   0.7594503   0.5726206   1.1362015
   1.2277105   0.5636237  -0.5992742  -0.1280739   0.1968649   0.0763246
  -0.5639742  -0.9552951   0.1855969   1.1459341   2.0513296  -0.3347860
   0.0833039  -0.2657643  -0.0824770   0.0369944  -1.1367501   0.6864108
  -0.0263743   0.2357828   0.1751506  -0.3182431   0.0949756   0.0379293
   0.4516772   0.6428980  -0.6225340  -0.6883582   0.1835088   1.0495237
   0.0401965   0.0280540   0.0995087  -0.2074865   0.0545481   1.1703825
   0.6831585   0.3959384  -0.8108285   0.3451208  -0.2397937   0.1150781
  -0.3287286   0.9287422  -1.0563685   1.4631768  -0.5185522  -1.1761804
   0.0565975  -0.3490165  -0.0651464  -0.6673480   0.0219851   0.6723814
  -0.6505772   0.7062655  -0.1429655  -0.0481225  -0.1566126   0.4137034
  -1.2173257   0.2337552  -0.3121351  -0.4837905  -0.6285636   1.7348957
   0.3406732  -0.1850706  -0.1904221   0.4586232  -1.2491564  -0.5550749
   0.7254203   0.4338670   1.5262589   0.2413643  -0.3212690  -0.3463691
  -1.0554376   0.1051520  -0.5257071   0.4138051   0.6326208   1.0619286
  -0.0629348   0.1000820  -0.0951065   0.3689286   1.1386694   0.7344913
   0.0333732   0.0294724  -0.5199784  -0.1393759  -0.2159506   0.1562707
  -0.7207452   0.6121241  -0.0119271  -0.5370287  -0.5101960   1.1479421
   0.0903132  -0.3435236  -0.0529777  -0.3997233   0.8848289  -0.7384729
   1.0817859  -0.7392161  -0.9104601   0.2911840   0.2339697   0.2355290
  -0.2677739  -0.6183188  -0.1614409   0.1189297   0.0571690  -0.7111722
  -0.3259316   0.2904210   0.0886409   0.4692918   1.2545433   0.0582397
   0.4065490  -1.2695481   0.0281395  -0.1618729   0.1841987   0.0730764
   0.0462331   1.5846264   0.0091150  -0.0883978  -0.1543418  -0.5427104
  -0.3464445  -0.1122306   0.0276577  -0.6534725  -0.6769277  -0.8160568
   1.7036729   0.5439777  -0.3752393  -0.1773507  -0.0260670  -0.0953601
   0.4407729  -0.4597676   0.5491875  -0.2615013  -0.7541862   0.7008813
  -0.3417044  -0.1227783  -0.1126465  -0.6999713  -0.3843595   1.3718019
   0.0856208   1.2683400   0.4313715  -0.2294577   0.1725972  -0.3450356
  -1.6205455  -0.4888540  -1.0343424  -1.2223042  -0.7460737   0.2005937
   0.1256175   0.0551161  -0.1203488   0.0681756  -1.1868488   0.4784199
   1.2114756   0.7380319   0.2251521  -0.3700759  -0.1496494   0.0802121
   0.7599057  -0.0036024  -1.9121374  -0.3771621  -0.6824526  -0.0904399
  -0.1725845   0.0542439   0.3645953  -1.2105501   1.3941022  -0.0512779
   0.1067719  -0.7177393  -0.7070719  -0.0159809   0.1281937   0.1836225
   0.2859974   0.9427198   0.7431933   0.0557709   0.4374877  -0.4984879
   0.1162575   0.0033543  -0.0526355  -0.6284726  -0.4964951   0.4903880
   0.0760442   0.5234525  -1.0673295   0.1844887  -0.1575373   0.0316323
  -0.7879425  -0.5499141  -1.5382484  -0.6747993   0.6727290  -0.0141583
   0.1192635  -0.0396471  -0.2719992   1.0232636  -0.6461684  -0.0169093
   0.6351064   1.0487002   2.2431886  -0.0471224  -0.0715633  -0.2548685
   0.2139289  -1.3228562  -0.1246762  -0.5582353  -0.2608964   0.4740193
  -0.1245037   0.2475659   0.0461165   0.7693313   0.3120581  -0.4245218
  -1.4325773   0.0173390   1.9138219  -0.6079488   0.3260222  -0.3522828
  -0.7795230  -0.6017014  -0.6266438  -0.6212017   0.6142064   0.3226175
   0.2087062  -0.0894881   0.1421570  -1.2449155   1.1796670   0.9765024
   0.2098390   0.7563540   1.2863669  -0.2066475   0.2562873  -0.0351309
   0.2056900   2.3664005   0.2609265   0.1519130  -0.4049704   0.2162634
  -0.0878115  -0.0353900  -0.0732099  -0.2316002  -0.3827063  -1.0897523
   1.0432528  -0.6030660  -0.5813882   0.0748024  -0.0601114  -0.1438809
   0.8127956  -0.0775790   1.7019833   0.3043252   0.1616578   0.9331961
  -0.2853677  -0.0322543  -0.2130628  -0.6364303   0.5672970   0.1872106
   0.9444889   0.7380164  -0.4955074  -0.1009430   0.1162254   0.0679182
   0.8288357  -0.6005184   1.1112380   0.7983727  -0.5427659   0.4013160
   0.0448175  -0.1354846  -0.0003888  -0.4468479   0.7150944   0.2385664
  -0.0778764   0.4842224   1.0853270  -0.3554523   0.3156101  -0.0973108
  -0.1849145  -0.1404683   1.5069327   1.2053801  -0.6284124  -0.2029709
   0.1529990  -0.1008995   0.1631874  -0.4694006   1.0827231  -0.0614467
   0.6103427  -0.0591040  -0.2951557  -0.0288880  -0.1661038   0.1353551
  -0.2545177  -0.3335460   0.2101723   1.0310799   0.5373968   0.4226816
   0.0881488   0.0848444   0.2009910  -0.3609371  -0.9930351  -0.1675991
   0.8877532  -0.5676490  -0.5623092  -0.1776819   0.0023536  -0.2002129
  -0.5893849   1.0908351   0.7229773   0.3361911  -0.8880755  -0.2340768
   0.1717775  -0.1758780  -0.0080719  -1.0277661   0.1551796  -0.2461666
   0.4228612   0.8255630  -0.6700454  -0.1745054   0.0324146  -0.0827837
   0.4530496   0.3186398  -1.5739298   0.4139029   0.6323775   0.5470438
   0.5398453  -0.2869264   0.3079869   1.0098802  -1.0533578  -1.0689280
   1.3835982   0.8795055   1.1043127  -0.0907814  -0.2800516   0.2016244
  -0.8745105  -1.1039343   0.6277808  -0.9354923  -0.9632674  -1.0648484
  -0.2823164  -0.0231349  -0.0665113  -0.6007533   0.1300997  -0.9662536
  -0.6695422   0.5919518   0.9088324  -0.1031439   0.2133766  -0.1957955
   0.1876420   0.8362248   0.4245346   0.2103017  -1.9896474  -0.8250050
   0.1490892   0.1093236  -0.1110034   1.0264019  -0.6773869   1.7077225
  -0.0761536   0.4002065  -0.0450452  -0.0381536  -0.1424795   0.0549488
  -0.5534700   0.4460574  -0.5326183   0.6214032   0.3814432   0.0591475
  -0.4954053   0.2708060   0.3867569  -1.3969600  -0.0527555  -0.8202584
   0.1254976  -0.9128414  -1.1488690  -0.1698632   0.0554344  -0.1767394
   1.0681602  -0.6336915  -0.7487359   0.6097519  -0.5704523   0.8075952
   0.1415447  -0.2742993  -0.0021395  -0.1564452  -0.0869882   0.0223583
   0.0094301   1.4203777  -1.1751570   0.0960678   0.1105441  -0.0789003
  -0.6625513   0.7877811   0.2971862   1.4615653   1.1767694   0.9886543
  -0.0122447  -0.0045535   0.2541576  -0.6992065  -0.1577912  -0.4656447
   0.6598584   0.9467598   0.5220369  -0.4544462   0.1224446  -0.1008355
  -0.4007556   0.4748897   0.6078722   0.3476967  -1.8867722  -0.4873918
  -0.1149771   0.0747250  -0.1193080   0.4442809   0.2812015   0.3851970
   1.1602347   0.2681241   1.0665342  -0.0646896  -0.2748348   0.1314693
  -0.6592289  -0.3130667  -0.5033550   0.2262615   0.8116955  -0.4280800
   0.2050187  -0.0551160  -0.0628026   0.0595747  -0.4661196   0.8215527
   0.8706569  -0.8799052  -0.6937311  -0.3186989   0.2973900   0.3200612
  -1.0335339  -0.4211995  -0.1866107   0.7057347   0.3243450   0.7824261
  -0.4173361  -0.3084498   0.1004706   0.4401162   0.0313983  -0.4584463
   0.3833701  -0.2570086  -0.2429870   0.1879062   0.0605261  -0.0231499
  -0.5443568   0.5488362  -1.1504213  -2.1766398   0.4726824  -0.1749899
  -0.4103026   0.0994150   0.0120411  -1.9460485   0.1934544   1.7329514
  -0.4134268  -0.9324151   0.2507346  -0.0017133  -0.1258310  -0.1199971
   1.4336531   0.5431979  -0.4469672  -1.1070251  -1.0898404  -0.0079880
  -0.2537358  -0.1211443  -0.0456246   2.3283181   0.7479603   0.1010668
  -2.4362068  -1.3659070   0.4640035   0.2050803  -0.1883726  -0.2509428
   0.1667057  -0.9160874  -0.3326272  -0.3353822  -0.4132942  -1.6583645
   0.0842759   0.0864253  -0.1760679   0.4426183  -1.3826580  -0.6863822
  -0.1575299   0.2391208  -0.6053059   0.0587415  -0.0542888   0.1907504
  -0.4986960   1.3692522  -0.0971296   0.5695287  -0.7759477  -1.6446388
  -0.1963677  -0.3288344   0.1679397  -0.2432109  -0.5961279   0.8068367
   0.6732986   0.7488440   0.1895703   0.0797014   0.0643159  -0.0346171
  -0.2682805  -0.7774052   0.0513049  -1.0296181   0.5533856  -1.1147788
   0.0048845  -0.0790152   0.2000186   0.3018313   0.3643003  -0.3073600
   0.2374548  -1.3364819   1.1604111  -0.0476895  -0.0007691  -0.4626457
  -1.1675330  -0.3377225  -0.6450915  -0.5164494  -1.5129473  -0.5678868
  -0.0951227   0.2138469   0.1714250  -0.4066538  -1.4442990   0.5240291
   0.9723948   0.7563805   1.5632871  -0.1967341  -0.0910883   0.2633409
   0.3052137  -1.4784164   0.3523106   0.2114617   0.5234566   0.0236918
  -0.0964126  -0.0252682  -0.0193725   0.0443519  -0.2465340  -0.9568793
  -0.6238810   0.9225661  -0.9747065   0.0870779  -0.1028028  -0.2000678
  -0.3694964   0.4511606  -1.6429200   0.2201349   0.3073503   0.2047080
   0.1239059  -0.4474821  -0.2302673   0.0021923  -0.2153298  -0.5009868
  -0.1111135   1.3966635   0.4006398   0.0477764   0.1177361   0.0959562
  -1.2930275  -0.6690836   0.2069422   1.0497117   1.0003718  -0.9950819
   0.0574397  -0.3474223  -0.2012634   0.6964090   1.1185662  -0.3339345
  -0.2342888   0.8816416   1.0293096   0.0107088   0.0517875  -0.1214877
  -0.7930059  -0.9688729  -0.8563393  -0.6273968   0.1775414   0.1893835
   0.1111149   0.0464056   0.0434473  -0.1660906   1.3904970   0.6025603
  -0.4775265  -0.6532912  -0.0833709  -0.0391888   0.1748186   0.0100193
   1.0214764   0.8920754   0.4129883   0.3243710   0.2240508   1.1252844
  -0.0669172  -0.1930929   0.1847283   1.0123260  -1.4499073   0.7757857
  -0.2876938   0.8334525   0.3260209  -0.3353191  -0.0833891  -0.2466569
   0.3525750   0.5632483   0.1960759  -0.2834899   0.0163133  -0.3543265
  -0.2469388   0.1289338   0.2399943   0.5540225  -0.2118573   0.1571826
   0.0330100   1.2490295   0.3323902   0.5321443  -0.2766075  -0.1330850
   1.5744959  -0.4469149  -0.8416612   1.8275805  -0.0295076  -0.7530810
  -0.1158113   0.0203038  -0.2557204  -0.7138757  -0.1892647  -1.7285966
   1.4129333   0.1556531  -1.0432605  -0.1703369   0.1755832   0.2676933
  -0.2698685  -0.4141423  -0.1213346  -0.5217844  -1.7869205   0.8431885
  -0.1266102  -0.0049179  -0.0591123   0.2596151  -0.3544106  -0.8573744
  -1.4863638  -0.4404755  -0.3153704  -0.0796781  -0.1667112  -0.1469637
  -0.0212805   1.0921640   0.1102204  -0.5199162  -1.4969441  -1.0219846
  -0.1811996   0.0931135  -0.0679338   0.1383027  -0.6202030   1.0811183
   0.5280300  -0.9384483  -1.0553049   0.1208636   0.0403094   0.0495101
  -0.5487413   0.1222439  -0.6943600   1.1172142   0.5200406   0.0563311
   0.0251485  -0.0823957  -0.3220728  -0.2791149  -0.8750400   0.0996741
   0.4458241  -2.1194019  -0.5816769  -0.5059063   0.1427914  -0.1351084
  -1.5113530   0.3914699   0.1089555   0.7679586  -0.3675249   0.7495007
   0.1124974  -0.6209710  -0.1129959   0.5516324   0.0492126  -0.1017966
  -0.7074538   0.2184606   1.0381612   0.0004960   0.3186839  -0.0045759
  -0.1102265  -1.3674645   1.3344651  -0.0010883  -0.3079018  -0.0212808
  -0.2968308  -0.3227347   0.0173746   0.0950090  -1.0659242   0.3300211
  -0.1852625  -0.4524060   1.8240304   0.0318969   0.1013737   0.0258799
   0.0238705  -0.0641530   1.4387623   1.2312198  -0.1461578   0.0090602
   0.3061810  -0.4082010   0.2651557   0.5357116   0.0080295   0.8064919
   0.4971346   0.6785606   0.1084788   0.2127530   0.2398954  -0.0363698
  -0.9499243  -1.6841102  -0.0866778   0.0558448  -1.0226501  -0.6118608
   0.2444089   0.2532622  -0.0347714   0.9244213   0.8481038   0.1528822
  -0.2820413  -0.1676098   0.6380286   0.0733469  -0.1658443  -0.0709954
  -0.5184433  -0.9708533  -1.0059522   0.2063177   0.0583780   0.6808746
   0.1208095  -0.0679736  -0.1239771   0.9816409  -0.0891133  -0.7145362
   0.7148226   1.2891495   1.2999634  -0.1022554   0.2802640  -0.1601810
  -0.5873358  -0.7492202   0.6980462   0.4882302  -0.6600832  -1.2101359
  -0.0850831  -0.2794399   0.1140950  -0.2640130  -0.1094150  -1.2787389
   0.1084973   0.2692639   1.2639582   0.1147525  -0.1758035   0.3566387
  -0.1959697  -0.8906821  -0.0022039   0.3350103  -0.7725811  -0.2480798
  -0.0888994  -0.0013080   0.0471257   0.7460793   0.6012541   0.8316441
  -1.3101386   0.2409251   2.1547649   0.4772186   0.1871050  -0.0964113
   0.4481619  -0.2566812  -0.2634736  -0.3869504  -0.5957627  -0.3617828
  -0.0977487  -0.1611533   0.0514139   0.5670627   0.6636229   1.5197572
  -0.6123253  -0.2467548   1.1391584   0.3896064  -0.3421590  -0.1727609
  -0.5126999   0.8007939   0.7170666   0.8840794  -0.1035240   0.6527814
  -0.2592506  -0.0027639   0.2637699   0.9465247  -1.8188949   0.0643891
  -0.3335091   1.8542920   0.8342876  -0.1944157   0.0238086   0.0741175
   0.1830380   0.4834771  -1.4380900   1.5490474  -1.4628341   0.2014074
  -0.2747417  -0.1430681  -0.0918476   0.5701306   0.1935761  -1.1104392
  -1.2646892  -1.6035672   0.7817243  -0.2655958   0.0022854   0.0840524
  -0.9778217   0.7331436   1.1475319   0.1117599  -1.1990453  -0.3193099
   0.0925631  -0.0868634  -0.1780755  -1.0260938  -1.1323428   0.8364950
   0.1575129  -0.7800775   1.3197756   0.0589215   0.0592577  -0.0909000
   0.3007469  -0.6391907   1.3230925   0.7505270  -0.1422874   0.5374085
   0.0450100   0.2759644  -0.2429956   1.2584634   0.2693092   1.7891318
  -0.3013813  -1.3143294   0.4994706   0.2581532   0.1044945   0.1002045
   0.3270743   0.4864971  -0.5288079  -1.2489665  -0.0258467   0.0786667
   0.2362140  -0.1287697   0.1340650  -0.1043553  -0.0589207   0.2882548
  -0.8374401  -0.8348365   0.4687119   0.0410293  -0.1557608  -0.4108889
   0.7712087  -0.0920591   0.4970608  -0.9324721  -0.7673084  -0.0645618
   0.0324501  -0.3482012   0.0794157  -1.0611969   0.0609912  -0.7099718
  -0.0054344   0.1737700  -0.8401092   0.0765265   0.3951909   0.0602664
   1.4101365   1.1648992   0.7738785  -1.2898377  -0.9237750  -0.4701453
   0.6476876   0.0975393  -0.2920980  -1.1677200  -1.2586390   0.6252696
  -0.1029031  -0.7704249   0.9692240  -0.2964727   0.1043514  -0.1404496
   0.4955548  -0.4146537  -0.8358080   1.7354435  -1.0595628  -0.3515356
  -0.1765005   0.1284118  -0.2456972   0.2505243   0.7468764   0.6731051
   0.7150236   0.1412493   1.1845936  -0.3974217  -0.5222433   0.0904995
   0.2495717   0.4285914   0.4768795  -0.4343305  -1.4562531   0.2710929
  -0.1468868  -0.2024847   0.0587156  -0.5612483   1.2777903   0.5956731
   0.4995122   1.4211861   0.7682233  -0.0822122   0.1162707   0.0935454
  -0.3266428   1.1930358  -0.5927479  -0.2667640   0.0272429  -0.2017979
  -0.1830501   0.1082839  -0.2187767  -0.1019704   0.6785271  -0.6848795
   0.0705787  -0.6072989   0.6109036   0.0367630   0.0631076  -0.4583884
  -1.4456141   0.2044652  -0.4682284  -1.2274774   0.6707957   0.3492926
   0.1962663   0.0760684   0.1473453  -0.1758700  -0.1976166   0.3650150
   0.2787867  -0.5836179  -0.6390221  -0.0046470  -0.1575435   0.0402047
  -0.9541748  -0.9568342  -0.0621087   0.4740068   1.9494369   0.2126084
   0.0229211   0.1600076   0.1317517   0.6087339  -0.1489893   0.1470942
  -0.6179336  -1.0159413   0.0450845   0.2767989  -0.1773766  -0.0333486
  -1.0387840   1.6459262   0.8393135  -0.7488241   1.5884854   1.1234871
  -0.1666156  -0.0361142  -0.0641659  -0.2255943  -0.1254646  -0.2845178
  -0.1362928  -0.0526846  -1.1745850   0.3004285  -0.1823191  -0.2079946
   0.6843823  -0.5580146  -0.4249224   0.9303946  -0.9154245  -0.7782729
  -0.0957061  -0.0474957  -0.0205827  -0.1923772  -0.7853547   1.3066375
  -0.7446645  -1.4344171  -0.7000827  -0.2101793   0.0883178   0.1692676
  -0.2577280  -0.7121809  -0.7571083   0.6047984   1.0965779   1.6132483
   0.1014391  -0.2682236   0.1370616  -1.0975277   0.2233688  -0.4341967
  -1.5052379   0.5540143   0.0153390   0.0010631  -0.1392697  -0.0185632
   1.8592570  -0.3757713   0.0657248  -0.3949655   0.6890630  -0.2043659
   0.0948455   0.5892460   0.1357135   1.0455972  -1.0209154  -0.1588810
  -0.0118493   0.9982345  -0.4649517  -0.1731432  -0.0400369  -0.2007461
  -0.9631858  -0.4731821   0.2571165  -1.3826385   0.5619085   0.0149220
   0.1204488  -0.1731600   0.1603118  -0.7275466  -0.7177644   0.3693114
  -0.0698539   0.2129564  -0.2634799  -0.0203905  -0.3412639  -0.0822431
  -1.3630638  -0.2415454  -0.7391629  -0.3122276  -0.2724935   0.8967808
   0.5500732  -0.1527283  -0.1629276   0.0261715   0.1747959   0.9258571
   0.9392532   0.4100511   0.7237419   0.2253961  -0.2905873  -0.0272692
  -1.5517656   0.4350466  -0.9522375  -0.3673666  -1.1051642   1.7121431
   0.0170502  -0.1138839  -0.1377891   0.0350776   0.0855435   0.9500371
   0.4077228   0.3332853  -0.6658900  -0.0550769   0.1915610   0.5735459
   1.1320235  -0.1861071   0.3288285   0.0953940   1.0663356   0.2232017
   0.3268393  -0.0432045  -0.2985986  -0.8485343  -0.3508466  -2.2880907
   1.3342103  -1.1389728   0.5470961   0.3061655   0.1598915  -0.1596923
   0.5300702   1.3300574  -0.6177613  -1.7949089  -1.2789221  -0.8111622
   0.2047659   0.1783821   0.1508255  -0.2873101  -0.2876089  -0.4697540
  -0.7605662  -0.4993385  -1.1708680   0.0263663  -0.0355529  -0.0177652
  -0.9901960  -0.6730083  -0.1620957  -0.1136293   0.8308257  -0.2498944
  -0.1001898   0.1377346  -0.1902211   0.2956946  -0.4218360  -0.4633546
  -0.2283100  -0.2950713  -0.7004674  -0.0506005   0.0555293  -0.0472463
  -0.2531780  -0.2771586   0.3551768  -0.5859735   0.2851078   0.7897174
   0.1439766  -0.0316127   0.0376274  -0.1223484  -0.3154021   0.7047977
   0.0113733  -1.9422696  -1.5947354  -0.5060331   0.0417849   0.0113372
   0.9565842  -0.6197865   0.2244987  -0.0532447   0.3619062   1.7788788
   0.0851531   0.0452288   0.0336968   0.8100471  -0.0341681  -0.5438524
   0.4703740   0.2134330  -1.4113444  -0.0000241   0.3221439  -0.1566652
   0.5025404  -0.5030049   2.1153307   0.5878127   0.4625196   0.5426207
   0.2407717  -0.1064954  -0.0907406   0.0279797  -0.6527147   1.3778830
   0.0918395  -0.1792788   0.0221560   0.1175900   0.2823480   0.2512273
   0.6406820   0.0598368   0.5959212   0.3117629   0.0225884   0.5024323
  -0.3248226  -0.0051314  -0.5444444  -0.6578853   0.0255203  -0.3459806
  -0.2939164   0.7797824  -1.0673982   0.1225576   0.0598738  -0.0130260
  -1.2783953  -0.3185517  -0.1009535  -0.5298688  -0.5549482   0.0384126
   0.3716277  -0.2282206   0.1154484   0.6748337  -0.0764423   0.1203045
   0.3112786   0.4088126  -0.2974235   0.1935062   0.1450033   0.2058797
  -0.5059391   0.4808650  -0.3393362   0.8560814   0.9096699  -0.4505504
  -0.0515169   0.1500558   0.5182317   0.7107436   1.4113830   0.3236255
  -1.6793218  -0.0703606  -1.2832859   0.0030538   0.1982659   0.0343487
  -1.1747910   0.5663280  -1.0021917  -0.6711929  -1.0767049  -0.7232931
   0.0257797  -0.0545542   0.0215083   0.2424428  -1.0499541  -0.1675732
   0.4185129  -0.7452862  -0.3362950   0.2418924  -0.1708432  -0.2403038
  -1.7080376  -1.2083579  -0.1386718  -0.4420172   1.5355724  -1.0116581
  -0.2952375   0.3244973   0.0964743   0.6102764  -0.9384022   1.0405954
   1.6043820   0.0038461   0.3059464  -0.0534817  -0.1363816   0.2623594
   0.1893615  -0.7819822   0.1403092   1.0388588  -0.0960294  -0.6970100
   0.3009812   0.1733660  -0.1892347  -0.7740425  -0.8563945  -0.9363431
   0.1012748   0.3628985   0.1330125  -0.1486871  -0.3406383  -0.2199211
  -0.8501925  -0.0999336  -1.2116927  -0.5412942   0.4605952  -0.6362917
   0.2466017   0.1461520  -0.1299725   0.8068560   0.1177640   0.8007513
   0.1679752   0.9194680   1.4481028  -0.0482592  -0.0639042   0.0385609
   0.2241124  -1.0608751  -0.6852426   1.6141750   1.1348665  -1.6175205
  -0.2349966  -0.4334003  -0.1596889   0.1005728   0.1458321   1.2732593
  -0.3531883  -0.2990364   0.0282660   0.0008291   0.1075864  -0.1054059
   0.2253394   1.1942263   0.6141005   0.2153467   0.4445554  -0.5994677
   0.2219039  -0.1550505   0.1928280  -0.7015690  -0.1564859  -0.8512442
   0.7813834   1.4517847   0.6612701   0.0748818   0.1038216  -0.5406214
   1.0900209   1.3226509  -0.8588478  -0.4773438   0.4173959  -1.0589943
  -0.0876532   0.4087152   0.2372994  -1.4598123  -1.0919576  -0.4997074
   0.1326312   0.8154962  -0.0941736   0.2398138  -0.0693339  -0.2389427
   1.1810327  -0.5925992   0.5082436   0.1541542   0.6300302   1.4145209
   0.5301936   0.0998304   0.1083667  -0.1104640  -0.3870443   0.4486042
   0.6830267   0.6598960  -0.5136340   0.1871801   0.0898079   0.0627738
  -0.5506378  -1.1849858   0.2451419   0.6250423   1.7118338   0.5467737
  -0.2351274   0.2877103  -0.2326408  -1.2454013  -0.7330899   0.4382010
  -0.3959117  -0.6464716  -0.7152864   0.3166131  -0.0668628  -0.1107583
  -2.2417393   0.9808574   3.2292171  -0.1972790  -0.6202558  -0.1689536
  -0.0574801   0.0902895  -0.1395859  -0.0814623   0.0425967   0.0682910
  -0.3117027  -0.3635963  -0.1251035   0.0308511  -0.1224283   0.0655244
  -0.6706365  -0.9936779   1.0389668   1.9631084  -0.9054071  -1.1817650
   0.1067537  -0.0425014   0.1957050  -0.5158203  -0.3477792  -0.9505991
   1.9787164  -0.8228886   1.1914040   0.2512107  -0.0158776   0.3546076
  -0.6768398   0.1525514  -0.2608041   0.5646564   0.0517047   0.6619302
   0.3118077   0.1227805  -0.0750534   1.0565693  -0.2185881  -0.1740191
  -0.4126075  -1.1329695   0.1393629   0.0796185  -0.2388404  -0.0671859
   1.0698576   0.7905390  -0.3352283  -1.0438578   1.3980943   2.9605536
   0.0290168  -0.3875060  -0.2816912   0.1200165  -0.5616610  -1.5287912
  -0.1365471  -0.1614523  -1.4687110  -0.0661139  -0.1505235   0.0448270
  -0.1310105  -0.9144452   0.6814325   0.1723625   0.8488407  -0.6363832
  -0.0763220   0.3799036   0.4352954   0.1081329  -0.1556398  -0.8157064
  -1.1830701   0.8008808  -0.3767188   0.2493802  -0.1046432   0.1164298
   0.5728405  -1.4457431  -0.9230253   0.0116948   0.7340583   0.6470301
  -0.1243020  -0.1209443   0.0645906  -0.7461520   0.5945688  -0.0169569
   1.0567902  -0.5025672   1.2341051   0.2888703   0.3164839  -0.0710420
  -0.3558926   0.4027410  -0.6049814   0.6683900   0.5879658  -0.3541640
   0.2407351   0.1091454  -0.1311039   0.8706620  -0.9280158   0.5309464
   2.3452966  -1.1558828  -0.2792272  -0.2224881  -0.1494099  -0.0591493
   0.0000222  -0.9761668   0.2548594  -1.5164044  -0.2745601   0.8102993
   0.1644757  -0.1334884   0.1844649   0.4165696  -1.1891390  -1.0781367
  -0.4226626  -0.7160939   0.9727273   0.3771580   0.1309990   0.1741794
  -0.8893403  -0.6675547   0.7358333  -0.3018619  -0.4218532  -0.2114951
  -0.0405998   0.4338181   0.0162558   0.3968709   1.9334958  -0.8623127
   0.3383608   0.0762096  -0.3347775  -0.1919320  -0.0479449  -0.3176293
   0.1829606  -1.4510765  -0.5263375  -0.2887292  -0.5627731  -2.0140224
   0.0359205   0.1009608  -0.0312795  -0.1791976  -0.7597585   1.0292283
  -0.1513740  -0.2204685   1.2237532   0.0201859   0.4547765  -0.1028567
  -0.4974545   1.6572164   0.1730956   0.5390130  -0.2035577  -0.2024397
  -0.0118891  -0.0247309   0.1696012  -0.0044384   0.5559114  -0.6213057
  -0.0077418   0.0852966   0.0316494  -0.0785795   0.2999694  -0.0936318
   0.4629423  -1.3610387   1.5027505  -0.4991907   0.6351628  -0.2827209
  -0.0128821   0.0374131  -0.2667440   0.4755849   0.4098203   0.3487196
  -1.3328136  -0.3811152  -0.9172471   0.2671703  -0.0869156  -0.1195083
   0.0137758   1.2715725  -1.7541161   0.7668250  -0.2218437   0.5424303
   0.1913401   0.1973874   0.2880557   1.2209247   1.0212698   0.7195074
  -0.2651387  -0.4424357   0.3667226   0.0765764   0.0871386   0.0432597
   0.1035922   0.8172354   0.5847785  -0.2241652   0.0263922   0.2298131
  -0.0344549   0.0902107  -0.3648953   0.5568712   1.5261898  -0.4767575
   0.5243915   1.0795205   0.6162658   0.0723920  -0.0203535   0.1408412
  -0.2609158  -0.6912971  -0.8342791  -0.5237864   0.3530988  -0.7219971
   0.0765269   0.0337091  -0.1429169   0.2718092  -0.0138610  -0.3342236
   0.5009043  -1.2569503   1.2875115   0.3114774   0.0790067   0.1541602
   0.9649908  -0.2921117   0.0241279  -0.2500859  -1.6733187   1.4749199
   0.3096276  -0.2372459   0.1862507  -0.1816052   0.7933252   0.4981232
  -1.0354003  -1.1233408   0.8292797  -0.0481515   0.0508757   0.0552542
  -0.9775090  -1.6513852  -0.1557986  -0.0814371   0.4287515  -1.5735142
  -0.1669847  -0.3148580  -0.0777825   0.8027059   0.3470310  -0.5347549
  -0.4173423  -1.6784431  -0.1799108  -0.0809649   0.2026025  -0.3834744
   0.1126338   1.2325463  -0.7273231   0.2076969  -0.4190755  -0.4667781
   0.0099201   0.0877757  -0.1255232  -0.2309942  -0.6384406   0.8386901
  -0.0289941   0.4350830  -0.2683989  -0.1351231  -0.1251243  -0.1462499
  -0.9047207   0.9464889  -1.4628776   0.0372114  -1.0038095   1.0182198
  -0.2191966  -0.2279844   0.2045606  -0.7830523   0.9302182   0.1026086
   1.3365052  -0.7375852  -0.6045548  -0.0823764  -0.1798410   0.1379320
  -0.1459083  -1.2618885  -1.5313817   1.0962136   0.1000787   0.7601717
   0.0337052   0.2592808   0.1555755  -0.3025222  -0.7536516   0.4687773
  -0.4617867   1.4297661   0.6713904  -0.5722657  -0.1645014  -0.2190188
  -1.1241798   0.7261159  -0.9420604   0.7680014  -0.8607554  -0.7181745
  -0.1702846  -0.1268257  -0.1986983   0.4689842  -0.4774870   0.7560189
   0.4880324  -0.7639053   0.0061245  -0.3195279   0.3185287   0.3644160
   1.4751856  -0.2373084   0.5650946   0.1846365  -0.8090916   0.3703869
  -0.0855422   0.4864028  -0.0396248   0.1124910  -0.4715001  -0.4386993
   0.2681148  -0.1272904   1.2345673   0.1781217  -0.0016443  -0.1819429
  -0.1553840  -0.6771206   0.0851143  -1.1461411  -0.0279035   0.6775130
  -0.1277578   0.2513389   0.1515354   0.2399220   0.0518455  -0.7505553
   0.6303651  -0.2378198  -0.3886765  -0.1998251  -0.4285202   0.0690451
  -0.2892763  -1.2576146  -0.6342900   0.2268631   0.3230845  -0.9672506
  -0.0334812   0.2010242  -0.1452330   0.5138860  -0.3293713  -1.4031204
   0.0134860   1.9648420   0.4440008   0.0381162   0.1579157  -0.1053741
   0.2164865   1.7489672  -0.4844145  -0.0328288  -0.1797720   0.2375509
   0.0831015   0.3200554   0.1240880   0.1463175  -1.6215824  -2.3248391
   0.1584742  -0.5264796   1.0049736  -0.1581309   0.4484957   0.2174410
   0.4231313  -1.1070852   0.3478512   0.4527013  -0.0449387  -0.9417397
   0.0971500   0.0681713   0.0943475   0.7566983   0.0861910  -0.0169394
   0.6504289   0.3769445  -0.5624461   0.0793041   0.0228868  -0.0282686
  -1.4906187   1.3264095   0.1103451   0.4787195   0.5337036   0.0560975
  -0.1874457  -0.5295874  -0.0962367   0.4823025   0.7624609  -0.8743790
   0.9972390   0.3317896  -0.2699912   0.1986591  -0.1772410  -0.1685210
  -0.1428500  -0.0831622   0.1269385  -0.4136782   0.5755236  -0.0707927
  -0.2775954  -0.2699613   0.0851456   1.7900925  -0.5355787   0.5691717
  -0.6634790   0.3960614   0.9337713  -0.3463938   0.2182381  -0.1216521
  -0.0976012   0.0743705   0.4424239   0.6569680  -2.0146635  -0.2640899
  -0.2348866  -0.2786159  -0.0723890   0.6133025  -0.0426945   0.8628532
   0.0949653   1.4440722   1.5532128  -0.0084168  -0.0939708   0.1785104
   0.2106408  -0.2114722   0.6483285  -2.0358026   0.2908933  -0.7289729
  -0.4768550  -0.2299441  -0.1446941  -0.3894295   0.6320073  -0.0087922
  -0.8644295   0.1728993  -1.9901446   0.1395283  -0.0591719   0.2300941
  -0.9593815   0.4256274   0.6942832   1.2877555  -0.5619742   1.0219589
  -0.0532167   0.1421695  -0.2496811   0.4829762   0.0247592   1.4210013
   0.0496416   0.3938384  -0.6611727   0.2216568   0.1033873  -0.3270870
   0.0815360  -0.2846508  -0.6458676  -0.2381465  -1.2063367  -0.0236166
  -0.0377784  -0.1465504  -0.0126052   0.0082290  -0.5418452  -0.5414515
   0.5322067  -0.1901333   0.7466120  -0.0433946  -0.2449611  -0.3457943
  -0.1813980  -2.5174944   0.4107744  -0.3565917   0.0051377   0.0456286
   0.2350161   0.3393341  -0.2740981   0.5761836   0.0146806   0.6298434
  -0.3714629  -1.0285239  -1.1224253  -0.1170593   0.1599835   0.0985831
  -1.2811911  -1.2436638   1.8278847   0.5878373  -1.0398715  -0.5799193
  -0.3261617   0.3181250  -0.1527218   0.2722851   0.1924425   0.0160427
   1.2657621   0.5049767  -1.8243394  -0.2095520  -0.0435863  -0.3192706
  -1.3387649  -1.2163658   1.2936265   0.8092385  -0.4207668  -0.3367493
  -0.2004787   0.0002945  -0.2999238   0.7949481  -1.1471120   1.2577250
  -0.0425840  -0.0123268   0.3790067  -0.2436596  -0.1078398  -0.1363589
  -0.9076222   0.4069859  -0.4391567   0.2919490   0.3886880  -0.6650378
  -0.0023627  -0.0344610   0.0470877   1.5361539  -0.8668102  -0.1190001
  -0.3337312  -1.4860251   0.1549574  -0.1914678  -0.2268411   0.0179142
   0.1447775   0.1067486   0.3278193   0.2894341  -0.2881507   0.6477589
   0.1705633  -0.1578120  -0.2051299  -0.3115620   0.0158046   0.6915088
  -0.1248332  -0.4819295  -0.6052406   0.1624673  -0.0773128  -0.0388252
  -1.1415220   0.2350124  -0.5260090   0.5757579   0.4784634  -0.0698263
   0.3246661   0.0164391  -0.0943253   0.6304678  -0.3699349  -0.2688634
   0.5078695  -1.2469121   0.6999924  -0.0714636  -0.1557797  -0.1302084
   0.9984853  -0.2244271  -0.5185402  -0.0129986   0.0270871   0.1349481
   0.2486343  -0.2458176  -0.1568649   1.1329652  -0.0649038   0.3571507
   0.8963690  -2.0235450   0.1851068  -0.0318978  -0.0554819  -0.1357847
   0.8748783  -0.1818233  -0.3577664  -0.4964618  -0.7665406   1.0552361
   0.0533692   0.0447030  -0.2168561  -1.7250785  -1.2763610   0.1470618
   0.3204665  -0.7966840   0.0726738  -0.2862932  -0.2849391  -0.2933722
   0.3381341  -0.3350896  -0.2704103   0.1179427  -1.0580755   0.7714464
  -0.0756148   0.1794571  -0.0590979  -0.3107226  -0.5793430  -0.5900907
   0.5318233  -0.4562224  -1.3265703   0.1778773  -0.1179287   0.0338545
   1.2500135   0.3637200   1.3667804   0.3097185  -0.4599194  -1.8697226
   0.0557175   0.0308320  -0.1080367   0.8394807   0.1715332  -0.4805295
  -2.4044423  -1.1122262  -0.0595348  -0.2624788   0.0328505   0.1569144
   0.2097022  -0.1724126   0.8213042   1.6967089   0.1754257   1.3314778
  -0.2101202   0.0124087  -0.0902309   0.0876582   1.1660428   0.2193473
  -0.7167680   0.0211683   0.3150729   0.2163077   0.0832370   0.1250351
  -0.6893346   0.3704873  -1.3443618   1.5482371  -0.5310097   0.7584258
   0.0461862  -0.0185436   0.2443676  -0.1453845  -1.2427016  -0.2896010
  -0.0353013   0.6936545   0.4750467  -0.1099763  -0.1873790  -0.0300896
  -0.6101293  -0.4779841  -1.7139516   1.4492464  -0.0770714   0.1119709
  -0.0086481   0.2599328   0.0553112   0.6718590  -0.6861497  -0.7683126
  -0.1053312  -0.9193625   0.4608843   0.0049385  -0.0574548   0.0597887
   0.7757338   0.0313088   0.8111718  -0.2422297   0.2351757  -0.3314528
   0.2053015   0.4536151   0.1628513  -0.0278129   0.6711490   0.2478546
  -0.3783103  -0.4221589   0.2485023  -0.1698109  -0.0957347  -0.0293462
  -0.1476046  -0.0640278  -0.4999404   0.2712175   0.0237879  -0.3862571
  -0.1945576   0.1438399  -0.0683398   0.5013568  -0.8848447   0.2853757
  -1.7467544   1.1930673   0.8152193  -0.1013673   0.1737307  -0.1847738
  -0.4366435   0.8719415  -0.3412181  -1.6970032   0.5275681   0.4123859
  -0.0740191  -0.0193581   0.0117213  -0.8486050   1.1150639  -0.7831910
  -1.1969786   0.9083563   0.2392443  -0.3006301   0.3085228  -0.1775786
  -0.6885800   0.1183563   0.5251729  -0.9317692  -0.3996949   0.8136967
   0.0596302   0.2581709   0.2077868  -2.0087125  -0.1266875   0.6821354
   0.8896219  -1.6453595   0.8965306  -0.1266183   0.3347946  -0.0386483
  -0.5840968  -0.0345701  -1.3279240  -0.3296983  -0.3165799  -2.6245773
   0.3234096   0.3699358   0.1445204  -0.5274723   0.4403785  -0.7677915
   0.4592984  -0.3824512   0.8597761  -0.0533387  -0.1882989   0.0810928
  -0.0494613   1.0133932   0.3937189  -0.7075914  -0.2704450   0.6264849
  -0.2234354   0.1259579  -0.1995265  -0.3597019   1.8940036  -0.1105048
  -0.5069927  -1.1252129   0.2059189   0.0203917  -0.0335292  -0.1927392
   0.2127699  -1.2949152  -0.1904543  -0.7916489   0.0035105   1.3567990
   0.0752951   0.2256996   0.3169516   0.0108572   0.0231642  -1.2461200
  -0.5596058   0.5607873  -0.3007022  -0.0363583   0.0772970  -0.0067738
   0.6064047  -2.1399460  -0.4258965  -0.4027264  -0.4773611   0.2658097
   0.3581921  -0.0203208   0.0204827  -2.4806097   0.3318066   1.0790155
   0.3216038  -0.0784818   1.0764185   0.2731237  -0.1457025  -0.1086494
   0.5842290  -0.1572732   1.3054785  -0.3802185  -0.4111339  -0.0300868
  -0.0802082   0.1674941   0.2461517  -1.2836437  -0.8991859  -1.4539787
   1.2473220  -1.0515159  -1.0823396   0.1052749   0.0954198  -0.2277974
  -0.3465396  -0.6051247   0.1601620   0.2984114  -0.6066402   1.1004148
   0.2383316   0.2409443   0.0678540   0.1605608  -0.3314679  -1.3751435
   0.5529079   0.3961646   0.0183170   0.1624834  -0.1058044  -0.0259862
   0.7302528   1.3855127  -0.5789724  -1.3429683  -0.5939165   1.1895256
  -0.3320037   0.0692774  -0.2606109  -1.4575505  -0.2288667  -0.2551377
   1.7246257  -1.1128767  -0.6328006   0.1206738  -0.1337751   0.0803965
  -0.2522947   0.1818618  -0.0683698   0.7735000  -0.5334877  -0.4266825
   0.1977861  -0.3689461  -0.0795959  -1.2055027   0.7645883   0.8793746
   0.0585262  -0.7843698   0.7030964   0.2169737   0.1309125  -0.0246218
   1.7806733   0.5798256   0.2112682  -0.5756724   0.3100879  -1.4230242
  -0.0346641  -0.1635022  -0.0769982  -0.0478851  -0.0798387  -0.6966171
   0.3472588  -0.1570295  -0.0043650  -0.0339007  -0.0325771  -0.0011400
   0.4007727   0.3783527   0.2381200  -2.0432115   0.3346312  -1.2828734
  -0.4011878   0.0364705   0.2959040   0.6178338   0.9190379  -0.4727172
  -1.7123674  -0.4295672  -0.3023550  -0.1467292   0.2006620  -0.0006878
   0.5003048  -0.6219289   0.0556067  -0.5841644  -0.7387629   1.0698177
   0.1495252  -0.0157464  -0.1450197  -0.6164283  -1.1012751   0.4440919
  -0.1575302   0.4602595   0.3668509   0.1904714   0.1941589  -0.2818885
  -0.3044437  -1.5731061   1.9620248   0.8087608   0.3021262  -0.4391510
  -0.1462644  -0.0569657  -0.1367544  -0.5485703  -0.0259283   0.3212706
   1.6679821   0.1769119   0.1213838  -0.1977938   0.2696965  -0.0013239
   1.3344131  -0.7557964   1.4506090   0.1223112   0.7042710  -0.2727506
   0.2196176  -0.1862769   0.0329910   0.1266818   0.2221342   0.5651420
  -0.4829282   0.8431519   0.1330749  -0.1364080   0.0624151   0.1964103
  -0.3139265   0.2737525   0.7917955  -0.5165741  -0.2506541   0.3974231
   0.0993299   0.3735766   0.2916119   1.4835255   0.2239184  -0.2098629
  -0.0015566   0.1361264   0.5017459   0.3240515   0.0759863  -0.1495795
  -0.8995553   0.8100505  -0.2328920  -0.9613780   0.3640523   0.2836162
   0.1088613  -0.2012211   0.0905736  -0.7969924   0.0960266  -1.0010509
   0.2332491   1.4341915   0.7118712   0.1251382  -0.0425231  -0.1419568
  -1.0732839   0.1823961   0.0063481   1.0686014  -1.1897767   0.5251707
  -0.1897963  -0.1087449  -0.0069132  -1.0384345  -0.7507880   0.4068549
  -0.3440104  -1.0015323  -0.0886432   0.2478188   0.2252580   0.2100730
  -0.1886710   1.3240225  -0.1754109   0.0877954   0.1005798   2.1458864
   0.1216195   0.0512111  -0.3210457  -2.0119653   1.7390180  -0.1854481
   0.0478287  -0.2765200   0.1389887  -0.2099280  -0.2601301  -0.0901914
   0.8320249  -0.2066064  -0.0119560  -0.4210589  -0.0710967   0.3483083
  -0.0614588  -0.0211221   0.0611705   0.8583735  -0.6620908  -0.2842561
  -0.1012280   0.5503141  -0.0086942   0.5812872   0.0649458   0.2231494
   2.3703785   0.4031532  -0.4351788  -0.7709169  -1.0310488   0.1584655
   0.1933907  -0.0434294   0.0138042   0.2852352  -0.6696895   0.5734059
   0.4835985   2.2238803   1.6879214  -0.3095362   0.0454475  -0.1717064
   1.2904662  -0.5721260   0.8511869  -1.0861235   0.1841304   0.0911827
  -0.0743469   0.0977535  -0.0160325  -0.7363392  -0.8109424  -1.4943515
   0.2985872   1.0130973  -0.4437341   0.2592882  -0.1862331   0.1460824
   0.1021315   0.0298357  -0.5196261  -1.8935443   0.6010510  -0.0137532
   0.0280680  -0.2024569   0.0679199  -0.8847420   0.7682248  -0.4626976
   0.2980549  -1.1501067   0.1346292  -0.1194299  -0.1527134  -0.1670192
  -1.8000592  -1.1423740  -0.7837736  -0.6065789   0.0991661   0.6237173
  -0.0023109   0.0687904   0.2461107  -1.0496579  -1.4435171   0.3041911
   0.3036725  -0.1090161   0.1754076  -0.3513375   0.2386168  -0.0701538
   0.4652978  -1.4867065  -0.0012389  -0.7507990   0.5486007   0.9180189
   0.6754076   0.1051763  -0.0993026   0.1499486   0.7758400   0.8434921
   1.0073807   0.8419308   0.6783281   0.0754743   0.3312301  -0.0403365
   0.6195832  -0.6915109   1.0144728   0.3139428  -1.3191478  -0.7744302
  -0.0583201   0.0105329  -0.1758947  -1.0941378  -0.3576919   1.2015082
   1.2391936   0.6619279   0.9022316   0.1751291   0.0517703   0.0823198
  -0.0657750  -0.2077148   0.2126484  -0.5554055  -0.5080664   0.2746101
  -0.3014963  -0.0256687   0.2580115   0.0585272   0.6004592  -0.7548218
   1.1024743  -2.3046155  -0.4788450  -0.0405196  -0.2071957   0.1576582
  -1.1024281   2.1286848  -0.0110687  -0.2493038  -0.0107941   0.5314203
  -0.2412564   0.1788113  -0.3570823   0.6631559   0.1940691  -0.6374691
  -0.6346546  -0.3506332   0.0416851  -0.0132292   0.0070164   0.2284124
  -0.5088177   0.4929327   0.7419117  -0.2082210  -1.0103984   0.3074464
   0.3254538  -0.0601361  -0.0047326   0.2783040   0.2171331   1.0033346
  -0.9692497  -0.1992265   1.2176639  -0.1687089   0.3915198   0.2648630
  -0.3089236   0.8194640  -1.3609223  -0.5268731   0.1601347  -0.1520881
  -0.0532959   0.2609234  -0.1796849  -1.6112031   0.1644415   0.4547811
  -0.1008795   1.1737760   0.4506037  -0.1415961   0.2667958   0.1904819
   1.0702417  -0.8579764   1.4262897   0.1729713  -0.9608576   0.0110861
   0.1085712   0.3693470   0.1656383  -0.4398674  -1.0695156   1.1741495
  -0.7082008  -0.8087362   0.0724583  -0.0990043   0.2238511   0.0813420
   0.2700580  -0.1359241   0.9721316   1.4495332   0.0245708   1.0001370
   0.1648017   0.3696984   0.3343654  -0.4018740  -0.5295011   0.3228773
   0.5429574  -0.2445034   0.0132656   0.1636841  -0.1258046   0.1738033
   0.5525659   0.4607239  -0.6609702  -0.8208721  -0.3889299  -0.0963624
   0.0147217   0.1497597   0.2890670   2.1313379   0.3291153   0.4410490
   0.6893195  -0.0625525  -0.0958477   0.0333124  -0.0300684  -0.2308551
  -0.3271991   0.5344841   0.0534745   0.3051500  -0.1735112   0.4390004
  -0.0821210  -0.0426388  -0.2639677   1.2250482   0.2405775  -0.5896819
  -0.4588949   0.6308189  -0.0264101   0.0282805  -0.0177647  -0.1295709
  -0.5226483  -0.8633263  -0.6846145  -0.7350160  -0.8942904   1.5891373
  -0.1064513  -0.2563945  -0.4848291  -0.4561409  -0.8574955  -1.3315687
  -0.1155284   0.2810574   0.5289152  -0.2297890  -0.1183144  -0.0552887
  -0.4519755   0.4063326  -0.0951331   0.3315826  -0.2596402  -0.3348624
  -0.0303654   0.1752052  -0.3335426   1.0482811  -0.5546579   0.0567280
  -0.1519469  -0.5018160  -0.7757893  -0.1532084   0.1153048   0.2663027
   0.2311993  -0.8771392   0.2060048  -0.0211020   0.5794971   0.0444314
  -0.0340712   0.1053582   0.0681493  -0.1157497   1.0332246   0.9136070
   0.1702195   1.3896651   0.0710081   0.0666802  -0.0538497  -0.2329493
   0.4105708   0.4692502   0.1438033   1.3073835   0.7535595   0.4257409
  -0.1550138  -0.2162990   0.3980802   1.3089297  -0.3360099   0.6081854
  -0.4255888  -1.0004472   0.0544932  -0.0556584   0.1056586   0.5094657
  -0.9760900   0.8852386   1.5757079   0.8044454   0.9428434   0.1883822
   0.2747876  -0.0547304  -0.6719654   1.0839431  -0.6343064  -0.7440430
  -2.0989532  -1.1817617  -0.6196380   0.4167820  -0.1163472  -0.1843064
   1.3547866   0.0988999   0.2133670   0.7038842  -0.3086888  -0.9557509
  -0.4087368  -0.2064229  -0.2130608   0.3343039  -1.7810819  -0.1839139
   0.3693154  -0.0545862   0.5434901  -0.2711132  -0.0558782   0.1144736
   0.0580672   0.0808070  -0.2676055   0.2095632   0.2209666   1.1067667
   0.2341816   0.4222279   0.0836647   0.4507069  -0.1677974  -1.0139525
   0.7813333   1.2346979  -0.3443359   0.2355496   0.0054048   0.2936887
  -0.4580527  -0.3104044   1.4339761   1.4751741   0.5876665  -1.0021328
  -0.3160885  -0.0705919   0.1594761   0.1728540   0.8301958  -0.6060401
  -0.5107512  -0.1264641  -0.2278964   0.1734877  -0.0738346   0.2357812
  -0.6524822  -1.0498717  -0.3299734   0.0084844  -1.0152445   0.0179193
  -0.1219790  -0.0277444  -0.1564286   0.1608445  -0.2921791   0.3746912
   0.6430266   0.2627128  -0.9224591   0.1512342  -0.0109002   0.0806092
  -0.9972236  -0.2932331  -2.0114462   0.6807504  -0.3540109   0.6987502
   0.1104383  -0.0499044  -0.1864374  -1.2867788   0.2338262  -1.0822989
  -0.3334582   1.9399351  -0.7250010  -0.0958951  -0.1521611  -0.1543953
   0.8402749  -0.4553910   0.0360354   0.4471974   1.0348830  -0.2156247
   0.1430814   0.1208343  -0.2369834  -0.8104500  -1.2228168   1.3057307
  -0.8153648   0.4429959  -0.1859292   0.3006611  -0.0349904   0.0283477
   0.5418131  -0.2766487   0.3257137   0.1857449   1.2651899   0.0597529
  -0.2746807  -0.0014924   0.3607136   0.1612082  -0.4512658  -1.0475323
   0.2888170   0.1890276   1.0555476   0.0002046  -0.2990957   0.0233287
  -0.3179878  -0.7353632  -0.1439764  -0.6556714   1.3235185  -2.0550904
   0.2023677   0.0783884   0.2227739  -0.5524523   0.7372047  -0.0466416
  -0.0272632   0.6883680   0.5315276  -0.2507277   0.3080204  -0.2162074
  -0.0530509   0.3341113   0.7626982  -1.1698669   0.6376398   0.1673416
  -0.1450054  -0.1960899   0.2489734   0.1118580   0.5632650  -0.1225086
   0.0898918  -1.2108117  -0.6824965   0.0451259   0.1402743   0.1885021
   0.7448229  -0.8105995  -0.8761585  -0.7415094  -0.9396811  -1.6569535
   0.0098411   0.1255182   0.0687225  -0.0969350  -0.1352004  -0.8929159
   1.0333464  -0.3600372  -1.3329282  -0.0149528  -0.1199735   0.2393195
   0.5171982  -0.0920399   0.7659880  -0.1932407   0.8879088   0.8160896
   0.0054610   0.0384863   0.2134368  -0.7820739  -1.0014309  -0.0755913
  -0.3660001   1.0786667  -0.3822645   0.0378735   0.3287273  -0.0611985
  -0.3587165  -0.6003551   0.0000908  -0.5624272   1.1279211   0.4666129
   0.2466102   0.2325947  -0.1020801   0.4641815   0.5309681   0.1131228
  -0.4302529   1.0199324  -0.1481450  -0.1784627   0.0964544   0.2750890
   0.9736701  -0.7971162   1.4255308  -0.9185789   0.0469051  -1.5420470
   0.4928080   0.0119952  -0.2076364   0.1799080   0.3567373   0.2372413
  -0.9028177  -0.5006565   0.4402260   0.3768797  -0.1331784   0.0523477
  -1.6499331  -0.4678582   0.5835015   0.6234138   0.5290061   1.6628067
  -0.2686756  -0.0665894  -0.1150388  -0.8342562  -0.0339423  -0.1515115
   0.3025664  -0.6558485   0.2906672   0.3167185   0.4192847  -0.0018798
  -0.4034683  -1.5278234   0.8318179  -0.7980546  -0.3000684  -0.5878865
  -0.3426473   0.0990053  -0.2141745   0.6744806  -2.0936880   0.3845422
   0.4411724   0.0402331  -0.0378369   0.0532258  -0.3172727  -0.4293064
   0.0612640  -0.8670599  -0.0272683   1.3107342   0.5396485   0.6844920
   0.0329810  -0.2311856   0.1526512  -0.2037504   0.9821744   0.8577362
   1.1962991  -1.2386105  -0.0762200  -0.0789602   0.0830222   0.2300007
  -0.2173782   1.1481963   0.2375667  -0.1293845   1.4631330  -0.2989816
   0.2945585   0.0816480  -0.1834301   0.0858768  -1.1759337  -0.4931323
  -0.0283237  -0.4882486   0.7332385   0.0398499   0.0613524  -0.0644373
   0.4349127  -0.1673540  -0.7406091  -0.6483736   0.2202080  -1.5279809
   0.2685105  -0.0919998   0.0124508  -0.5677815   1.3326412  -0.0636993
  -0.1794130   0.0150177   0.3630938  -0.0561268  -0.0391281  -0.1075750
   1.1236395   0.0211085   0.3693579  -0.8159670  -1.2227583   0.3592442
   0.1903341  -0.1606217   0.2028229  -0.6001937   0.9075227   0.4526803
   0.6531810  -0.8001917  -1.2611902   0.1874585  -0.0894233  -0.0710640
   0.9340339   0.9386197   0.0261051   2.0801766   0.6865164   1.0804546
   0.2043371   0.2187776  -0.0466197   1.5223982  -0.4331328   1.8017497
   0.4060135  -0.7663685  -0.4882085  -0.2906516   0.2709601  -0.0006184
   0.5770110  -0.6848398  -0.4218281   0.2346669   0.9560745   1.0108832
  -0.0085970   0.0953773  -0.1160101   0.5537047   0.1269579   0.8755706
  -0.8741232   0.2798528  -0.8640190  -0.0568649   0.2167438  -0.0464323
   1.6010678   0.5415161  -0.2730071   0.8558968  -2.0824115   0.4468296
   0.0321489  -0.1928173   0.0525765  -0.2091473  -1.8516810   0.2249900
   0.3190452   0.4844517  -1.2003012  -0.0036154  -0.2186775  -0.4281128
   0.8827971  -0.7789465  -0.0026433   1.4328187  -0.3273368   0.4846048
   0.1060259  -0.2911409  -0.2114320  -0.2007998   0.0600991  -0.4322922
  -0.3831523  -0.0485072   0.0023158   0.0141293   0.0810344  -0.3788508
   0.2342116   0.0355681   0.4459028  -0.3066717   1.1151754   0.4510245
  -0.0350344  -0.1155548   0.0073709   1.0034031  -1.0232401  -1.2564048
   1.1720670  -1.5702381   0.1780593   0.2208171   0.0798420  -0.2417075
   0.8507260  -1.0447242  -1.0696599   0.0980045   0.9806901   0.5007919
   0.0556271  -0.1668736   0.0725114  -0.0334503   2.4990559  -0.4472369
   0.1985168  -0.8155198  -0.4269037   0.0259341  -0.1133264   0.1757477
   0.5554942   1.5448978   0.3645133  -0.5566856  -0.2571586  -0.4040024
   0.1339871  -0.0094877   0.0840585  -0.3338691  -0.1292454  -0.5898473
   0.6988454   0.1105863   1.3575727   0.2384948   0.0646157  -0.0431112
  -0.4986897   1.1588134   0.5488976  -0.6887771   0.2122552   0.3208094
  -0.2545025   0.1554196  -0.0255881   0.4852545   0.1264439  -0.2328813
   0.7192064  -0.6541475  -0.2688033   0.0473366  -0.3757991  -0.4317784
   0.9718345  -0.5752771   0.1915253  -0.9369362   0.7507302   1.5427169
  -0.2766440  -0.0935112   0.2704393  -0.6380730  -0.3942047  -0.6610733
  -0.8716288  -0.3007033  -0.2916204  -0.0662526   0.2818401  -0.1757768
  -0.6241568   0.8690015   0.0886177   0.6952302  -0.5010754  -0.1931493
   0.1631089  -0.1855807  -0.1737770  -0.8408075   0.6434898  -0.7144915
  -0.2319412  -0.3805146   1.5871100   0.0992273  -0.0742440  -0.0830444
  -0.3982550  -0.1856223  -0.3950794   0.7338398  -0.0500615  -1.1536024
  -0.4729568  -0.1307768   0.2600956   0.4865452  -0.6897194  -0.7013363
   0.8699881  -0.3029107   0.1808274   0.1125113  -0.2084729  -0.5002004
   0.5603324  -0.3057780  -0.3408275  -1.0371852  -0.5192543   1.1489886
   0.2372350  -0.0778731   0.3077516   0.5300330   0.1488517  -0.8747309
   0.0956774   0.4898857   0.7973464   0.1174908   0.1172436  -0.1858799
  -1.4882382   0.1331838   1.3627685   1.4131314   0.0023149  -1.2359052
  -0.2401327   0.1869134  -0.0030221  -0.3572521   1.5140252  -0.2403279
   0.5539603  -1.0735224   0.8056418   0.0062788  -0.0416049  -0.0222827
  -0.5645864   1.2180340   0.3412226  -0.5755629   0.8407806   0.6264027
   0.2943705  -0.4394637   0.1149940  -0.9258546   2.1768105  -0.1472637
  -1.4295763   0.8393958   0.1364482   0.1919835   0.0946343   0.0280861
  -0.2154787  -0.1689875   0.9746888  -1.4106853   0.2260158   0.5376844
   0.3368704   0.0849070  -0.3226699  -1.4125347   0.7734363  -0.3734530
   0.5331318  -0.2148457   1.6022141  -0.0600532   0.0559924  -0.0779896
  -0.4636340  -1.1992329   0.1334299  -1.3294443   1.0247173   0.1957774
  -0.0521002  -0.4317535  -0.1943606   0.7514854  -0.8444616  -0.6437672
  -0.3734527   1.1368477  -0.5601358   0.0396411   0.2567673   0.0304868
   0.5068675  -0.0774174   0.1217434   0.6835992   1.4827797   0.2812548
  -0.0747364  -0.1032918   0.0697574   0.5194656  -0.3380491   1.6253817
  -0.5508827   0.1471581   0.7810410  -0.1233673  -0.1183888  -0.3372005
  -0.0921571  -0.3732393   0.3292806   0.6486791  -0.2984254  -0.0636017
  -0.1229679   0.1687981  -0.0485075   0.2415691  -0.4746078   0.5308311
  -1.5710090   0.5917249  -0.7949276   0.4732550   0.4264657  -0.1441666
   0.2132807   0.1456284  -0.2472836   0.1461125  -1.4781462   0.2259985
   0.2016358   0.1794019   0.2881020  -0.4583263   0.1452780  -0.1329646
  -0.9950795  -1.0999600   1.5175151   0.1025181  -0.3090498  -0.0188063
  -0.5010882   1.9902401   0.5118138   0.6109217   0.2037522   0.6169197
   0.1465136   0.2017485  -0.0584067  -0.9056946  -1.5650374   0.5325949
  -0.0781921   1.1513098  -0.7605242  -0.0556094   0.0219519   0.3185189
   0.0373680  -0.7557231  -1.0849706  -0.0001032   0.4345734  -0.9994451
   0.1790017  -0.0689186   0.0839642  -0.2233966  -0.1156704   1.0097598
  -0.0158851   0.6421416  -1.2242088  -0.1418084  -0.0824838   0.2445762
   0.3762871   0.0271824  -0.4617290   1.3498281  -0.5874796   1.4640812
   0.1122419  -0.1126254   0.1150246  -0.7092723  -0.0596173  -0.0908337
  -0.0679558  -0.1845588  -0.2521107  -0.1702795  -0.3462981  -0.1227682
  -1.2031260  -0.8760015  -0.0501233  -0.1903846   0.9589274   1.0846261
  -0.0588547   0.1490623  -0.0621504   0.5535697   0.3356286   0.1825006
  -0.4411842  -1.1549661  -0.8115343  -0.1964326  -0.0220032  -0.2534377
   1.3505794  -0.0846373   0.3404143   0.8769547   1.1971680   1.4506354
  -0.0251124  -0.2056327   0.2052666  -0.7020164  -0.2425721   0.5043177
   0.7128364  -0.8428737   0.8773462   0.2028192   0.0900020   0.1706405
  -0.1325980   1.4045988   1.0115119  -1.1464212  -0.9411327  -1.0281843
  -0.0209332   0.1988174   0.0126569  -0.0243612  -1.0881001   0.6298330
   0.4899110   0.3779458   0.2708068  -0.1231640  -0.0513905  -0.0989196
  -1.1304656   1.2698425   1.2481269  -0.4860903   0.8426253   0.4891379
   0.2775015  -0.2993039   0.1506460   0.8855448   0.3708337  -0.3444930
  -1.0014801  -0.7050686   0.3243859  -0.0471842   0.1810675  -0.0543035
  -0.0174057  -0.7491853   0.6126128   0.5846269  -0.8344322  -0.7579553
  -0.2415284  -0.1195929  -0.1024648   0.0515670  -1.3959450  -0.7143200
   0.3275925   0.6392608   0.5010141   0.2670397   0.2181625   0.0454963
  -0.9548318   0.8801628   0.2517200   0.8709648   1.0791948   0.3503189
  -0.0745978  -0.2788830   0.0654408  -1.6778668   0.6637849   0.1488653
   0.3828974   0.8866808  -0.8974770   0.0819075  -0.0767796  -0.2210245
  -0.5418403  -0.6477771   1.1842339  -0.0089274  -0.2182181  -0.0089778
   0.0392254  -0.1396040   0.1481159  -0.0711405  -0.7903070   0.5362004
  -0.8370687  -0.2850213  -1.2527720   0.0187408  -0.0947277   0.2083463
  -0.1667978  -1.7263213   0.3339027   0.1139338   0.6456371  -0.4667057
   0.1505095   0.1607563   0.0139898  -0.6958115   0.9520351  -0.6951554
  -0.8328297   0.1484767   0.2853123   0.1116356  -0.0123109  -0.1897752
   0.1078571   0.0823989   1.1098911   1.1854681   0.4243350   0.6418843
  -0.0548327  -0.0735095   0.1434763  -0.8378767  -0.2197237   0.4353558
   1.4986088   0.1674667  -0.2562647   0.0985880  -0.0835338   0.1184665
  -1.0840367   0.5114763   0.0506763  -0.6480638   1.3651609  -0.7639901
   0.0998675  -0.4378994  -0.2886716   0.1002014   0.1432795  -0.6932665
   0.1844423  -0.1449445  -0.1560964  -0.0441351  -0.4244494   0.1848783
  -0.5889478  -0.7366639   0.0203966  -0.4652421  -1.4527193  -0.6542950
  -0.1619987  -0.0179422  -0.1557343   1.3988657  -0.6694314   1.3228467
  -0.3686100  -0.1188830  -0.2342517  -0.0153680  -0.1206333   0.0216715
   0.6145571   0.3852382  -1.1956130   1.3981670   1.5414888  -0.2536518
  -0.1614636   0.0393333   0.3198710   0.0687352   0.9834409   1.4131099
   0.5811589  -0.4648052  -0.4402553   0.0793854   0.1720514   0.3054333
  -0.3730188  -2.0516536  -0.5239977   0.4481643   0.5116608   0.4642751
  -0.0043536   0.0331357   0.0098274  -1.8141001   1.1935875   0.7739756
   0.2919746   0.6957815   0.8155743  -0.0986980   0.0096620   0.3511607
   0.2061430  -0.8190711   0.2144214  -0.0192116   0.4176936   0.3560567
  -0.2579572   0.0320294   0.0615930  -0.3225260   0.4085590  -0.3578391
   0.7637298  -0.6407296   0.2116364  -0.0137482  -0.1726298  -0.1140473
  -1.1717393  -1.4215850  -0.2642536   0.8447722  -1.7600282  -1.5597186
   0.3916616  -0.0459447  -0.1982575   0.7288864  -0.8961129   1.3423026
  -0.7882916  -1.2389385  -0.3604444   0.1626726   0.0511061  -0.3733261
   1.1993788   1.0052638   0.0628063   0.0316806   0.1945955   0.1549836
  -0.0142215  -0.1152790   0.3881166   0.5055993   0.8021556   0.8095749
   0.4194486   0.3964395  -0.3552589  -0.2726578   0.0410910   0.1104592
   0.1093062   0.4796383  -0.5465475  -0.6069971   0.1271532  -1.4964222
  -0.1414970   0.1198265   0.3196167   0.0224384  -0.4423538  -0.9900041
  -0.4511241  -1.3886799   0.6924711   0.4120691   0.0717376   0.1955371
   0.6966609  -0.0320924   0.0121370   1.0337975   1.1135461  -0.6997774
  -0.3582242   0.0521788  -0.3901156  -0.1330117  -0.5743244   1.1791357
  -0.6118639   0.6716073   0.9103792   0.0232233  -0.1480196  -0.0133877
   0.1091043  -0.3582822   0.1034788  -0.2326364   0.4549884  -0.8243414
   0.0044697   0.0968376   0.0189922   1.1151437  -1.1844907  -0.1932110
  -0.4095133   0.1665436   1.7322375  -0.2846585  -0.0807633   0.2060257
  -0.7958751  -2.5884922  -0.0900830   1.0160347   1.7364711  -0.0568076
   0.0124308   0.0686013  -0.0204106  -2.1391866  -0.6721061  -0.3712852
  -0.0243598  -0.3202453   0.6936699  -0.1701230   0.3146708  -0.0897187
  -0.0307514   0.2449396   0.4865131   0.5047135   0.3226158  -0.1220363
   0.0831953   0.0881909  -0.1374107  -0.1522911   0.3448726  -0.4651762
  -0.5478995  -0.8313238   0.3771602  -0.0264524  -0.1846872  -0.0008911
   1.4231710  -1.8488743   0.9248657   0.2897952   0.7641723  -0.6104028
  -0.0211310  -0.3179358   0.0155713   0.4154633   2.2431448   0.1310944
   0.1099594  -1.5574238  -0.4842376   0.0752720   0.1145599  -0.0662496
  -0.0184352  -0.4375620  -0.7853864  -0.5770897   0.5307949  -0.1933515
  -0.0152564  -0.0289874  -0.1784943   1.1434325  -0.8683448   0.3645821
   0.8414326  -1.0344297  -0.7425355   0.3610812  -0.0149252   0.0827767
  -1.5354064  -0.3007323  -0.6044059  -0.3410208   0.4054430  -0.2471475
   0.0926724   0.2637167  -0.4982074  -0.4535083  -0.8140721   0.4741184
  -1.1602788   0.4023075   0.7564583  -0.1162790  -0.1841104   0.1153780
   0.3618421   0.2665956   1.1165783  -0.0561236  -0.3148579  -0.9301820
  -0.0352686   0.1438410   0.1181368   0.0348693   0.7105179   1.0701464
  -0.8288891  -1.1838822  -1.0816332  -0.1993465  -0.1924687  -0.0556406
   1.0645061   0.4553235   0.4884607   0.0935653   0.3986149   0.6528114
  -0.0376139  -0.2709768   0.1974597   0.4692807   0.1288550   0.7108469
  -0.7470172   1.1140071   0.2163988  -0.1358514  -0.0429725  -0.1523897
  -0.4095714   0.8529238  -0.4840311   0.3096187   0.0089367   0.2030798
  -0.0368685   0.2388299   0.0419435  -0.1917247   0.6426416   0.9914078
   1.3404320  -0.5660363  -0.4537258   0.0036261  -0.1556824  -0.2516320
   0.1306782   0.6937338   0.9401482   0.0514270  -1.0001148   0.8189315
   0.0469220   0.0407113   0.1827376   0.7858408  -0.3271031   0.1560233
   1.3102515  -0.6569725  -0.4776529   0.3018565  -0.1777587  -0.0466283
  -1.3314037  -0.0508734   1.1149256   0.1077486   0.2825353   0.0591860
  -0.1293045   0.4623606  -0.0230033   0.8442360  -1.1111988  -0.2564701
  -0.0871568   0.4842242  -0.5494031   0.0097794  -0.1144032  -0.4097108
   1.0855913   0.7889482  -1.0798752   0.7243114  -0.0889289   0.4297464
  -0.2307654  -0.1807078   0.0098410   1.0541488   0.7457485  -0.3158944
  -0.5536113   0.2967156   0.1611669  -0.0306476   0.5069758  -0.3817968
   0.6528777  -0.6898342   0.2416328   0.1241849   0.4022332   0.9898075
   0.1178682   0.1112955   0.0631656   0.5437449  -0.3355124  -0.3375161
  -0.1984246   0.0602054   0.3144060  -0.1175912  -0.2716090  -0.1032363
  -1.9666212   0.2552403   0.9180048   0.8275210  -0.6991122  -1.1862299
   0.1976706  -0.2919405  -0.0175577   1.5443791  -0.2881965   1.5328286
   0.1345890   0.8441995   0.1398101  -0.0137137  -0.1871481   0.2272195
   0.0404402  -0.6006814  -0.4798831  -0.1198745   0.7827784   0.5951757
   0.0838687   0.0913981  -0.1430433   0.6190512  -0.2810252   2.0634372
   0.7055388  -0.8250278  -0.2531595  -0.1691819  -0.0378548   0.0792446
   1.5688484  -0.8053719  -0.3080869  -0.4630986   0.2236787  -1.0385824
  -0.0706312  -0.0420021  -0.0202262   1.0787160   0.8794968  -0.0299974
  -0.4152405  -0.3891848  -0.9880483  -0.3363944  -0.1973688  -0.0723446
   0.5768559   1.6501611  -0.0904788  -0.1663295   0.4238973   1.5159881
  -0.1957780   0.1919981   0.0105110   0.3212012   0.3148789  -0.4382526
   0.2857802   0.9932554   0.7712729   0.3166530  -0.0153150  -0.0912707
  -0.8326228  -0.5573429  -1.5683868   1.1705829  -0.4681066   0.5663393
  -0.0160067   0.1888183   0.1669841   0.5653173   0.7116563   0.4732192
  -1.0175071  -0.9604096  -0.0125545  -0.1682004   0.1815091   0.1345674
  -0.3659980  -1.1992590  -1.4423685   0.1906989  -0.3616831  -0.4883161
   0.3183719  -0.0618482   0.2089817   0.2641710  -0.8582447  -0.0400498
   0.8876485   0.6872639  -0.8412892  -0.0988417  -0.0629307  -0.0058989
   1.0957748  -1.4798989   0.8921881  -0.1761521  -0.3298284  -0.9976559
   0.1019778  -0.1560172  -0.1219821  -0.7410859  -0.6723034  -0.9049697
  -0.0982774   0.2711297  -0.4240788  -0.0988246  -0.1404429  -0.1304369
   0.1566507  -0.3654215  -0.3781301  -0.3331383  -0.4358656   2.1250765
  -0.1148341  -0.1573148  -0.2635740   0.2170976  -0.9104995   0.2700869
   0.6848922   0.4413048   0.1828526  -0.2443238  -0.0339547   0.2641108
  -0.1671496  -0.8508163  -0.2520912   0.0516501  -0.3185357   0.5026529
  -0.1237009  -0.0377464   0.0299814   0.7754388  -0.8104042  -0.5759208
  -0.4814751   0.8335189   0.7396041  -0.0491631   0.2572130   0.0342459
   0.3452209  -0.2017664   0.3811872  -1.0846976  -0.2606392  -0.8111845
  -0.0596793   0.2254329  -0.0816121   1.1853526   0.7762373  -1.1779921
   0.8762616  -0.2302278   0.5578471  -0.1829543  -0.5063432   0.2796939
  -0.5976602   2.1937671  -0.2951443   1.0089684   0.7335995   0.2582529
   0.2922301  -0.2881075   0.2167117   0.0000759   1.0075094   0.4187445
   0.7993283  -1.9019219   0.9256818  -0.0315683   0.1402177   0.0126837
  -0.2121335   0.8893955  -0.8681502   0.5279528  -1.3940711  -1.8050894
  -0.1120146  -0.3939787   0.2184925  -0.4550168  -0.1345342   0.7224134
  -0.6193946  -0.4446141  -1.6085000  -0.1991139   0.2921993   0.0469479
   0.5758546  -0.1643925   0.2274210  -0.0100370  -1.2334526   0.7451160
  -0.1590412  -0.4160401  -0.0046062   1.0740604  -0.7832060   0.7864940
  -0.7409483  -2.1226056   0.4296569   0.1269368   0.1343788  -0.0132229
  -0.6236530  -0.4980544   0.5188997   0.6029125  -0.4300856  -1.7567669
   0.0083600  -0.0490546   0.0471067   0.2250254  -0.1800856  -1.1026210
   0.0449614   0.0039703  -0.9811393   0.0405774   0.3964171  -0.1098038
  -1.5459751  -1.3248488   0.1248994   1.0469621   1.9113808  -0.5682312
  -0.1068617   0.1462582   0.1481629  -0.2262448  -0.5012777  -0.1030145
   1.0782340  -1.2951258  -0.2960275  -0.0550351   0.1466387  -0.0421062
  -0.1630120  -0.3773848  -0.4761340   1.3398745   1.0965672  -0.8439661
   0.0686061   0.3027658   0.0227866   0.2492063  -0.6266366   0.5481917
   0.7662507  -0.1876553  -0.2424166  -0.5462938   0.0571977   0.1307533
  -1.1988190  -0.3232180   0.3747264  -0.2624968  -0.9251603   0.2616225
   0.2395849  -0.1186209   0.0096618  -1.0493338   1.1769496  -1.8786676
  -1.4068599  -0.8157004   0.0369867  -0.1317538  -0.0276180   0.0822734
   1.8410861  -0.0393528   0.3249566   0.5808549  -0.3600189  -1.3268888
  -0.1736512   0.1315278   0.0588008  -1.4327817   0.1403190  -1.7467694
  -1.3596374   0.8575945   1.3630093  -0.0498545   0.2063897  -0.2582586
   0.9524850   0.5475473   1.0409749  -1.5552622   0.3580754   0.9172284
  -0.0459052  -0.1150279  -0.3145677   0.1172164   1.1417052  -0.0713758
   0.4899400   0.3167157  -0.4832827  -0.1881176   0.3298621   0.0855231
   0.7527731  -0.3616988  -1.1552645   0.8471125   0.1973516  -0.7073784
   0.0551663  -0.2134451   0.0220816   0.9058409   1.0028286  -0.5919408
   1.2585577  -0.4876628  -0.2783008   0.1648761   0.2073503   0.0194393
   0.9064559   0.8941513   0.0147762   0.0200531   1.2787061   0.1679717
   0.0536341  -0.0986958   0.0629455   0.6055185  -0.2146052  -0.7054218
   0.2360324   0.2556379  -0.2879310   0.1930775   0.1728851   0.0246108
  -0.6361696   0.2226713  -0.2292317  -0.6750482   0.3094759  -1.2211239
   0.2553849   0.0818080   0.0668939  -1.5379273  -0.8230311  -0.6379723
   0.4023310   0.0921522   0.0608359  -0.1720790   0.0042291  -0.1492870
  -0.1071381  -0.1024629   0.5596849   0.4812797  -0.0192466  -1.0494766
  -0.2034429   0.2574462  -0.0555108   1.5031161   0.8781683  -0.6806417
   1.4918834   0.3691783   1.4347273  -0.1729964  -0.0049972   0.2603145
  -0.1617555   0.9393185  -1.3538800   1.4094061  -0.1477139   0.2414803
  -0.4121249  -0.3346472   0.1247016   0.5178543   1.5901926   0.3761901
  -1.3906037  -0.2877216  -0.6538872   0.3729233  -0.0997136   0.3051321
  -0.9165502  -0.3656467   0.3313240  -0.2399025   0.0109675  -0.1017159
  -0.3224293   0.3640026   0.1689738   0.3565533   0.0391602  -1.4505988
  -0.4310831   0.5180197   0.2531171   0.1691912   0.1785618   0.3443578
  -0.4340098  -0.5969627  -0.4011101  -0.4793427   0.7466610   0.2528903
   0.0982541  -0.0707060  -0.2286481   0.6808116  -0.5635266  -1.6312810
  -0.8494725  -0.0232308   0.8702763  -0.2024940  -0.2944831   0.2326777
  -0.9165503   0.6465007   0.2429922  -0.1471797  -0.3717245   0.4637251
   0.2286709  -0.0009206   0.3627599  -1.0678723  -0.3856390   1.0280517
  -0.3164995  -1.3286903  -0.9422930  -0.1357773   0.0022125   0.0263841
   0.5025102  -0.7389892   1.1741382   0.6117336  -0.9132321   0.5662481
   0.2809235   0.1594473   0.3023044   0.2347507   0.2299493  -0.5607600
   0.5576932   0.5730234  -0.2992368  -0.0475545  -0.2356453   0.0619938
  -0.0534637  -0.8385794  -0.4723310  -0.7665501  -0.0227644  -0.3050225
   0.1525507   0.2514536  -0.1567537   0.3299456   0.6249871  -0.5233230
   0.0415761   0.6233413  -0.9592211  -0.0042601  -0.0695414   0.0906028
  -0.1713516   0.8424460  -0.1503510  -0.3616923  -0.3736583   0.8963006
   0.0767929  -0.1867241   0.2782429  -0.7958936  -1.3232479  -0.5430132
   0.6230639  -0.6591385  -0.0147592  -0.1337322  -0.1978820   0.0513954
   0.2697948   0.4944960  -0.6430884  -1.3822533  -0.5294718   1.7474853
   0.2957506   0.2841362  -0.1420897   0.5021687  -0.0944415   0.7874891
  -2.1455493   0.2392759  -0.8908163   0.3492128  -0.3282610   0.0157753
  -0.4706448  -0.0081243  -0.4661402   0.8655640  -1.2575212   1.6990651
   0.3868646  -0.0377443   0.0186613  -0.8532994   0.4179478   0.4287370
   2.7815337  -0.0846767   0.6924817  -0.1043007   0.0249410  -0.1645639
  -0.2305783  -0.0479748   0.8402218   1.0173011  -0.4635736   0.5322627
  -0.2847412   0.2660287  -0.0218992  -0.3582079   0.8378342  -0.0129753
   0.3569968  -0.1021920  -1.6843461   0.0491360  -0.0184780  -0.0749576
   1.0080951   0.6849710  -0.5565910   1.0306538  -1.7683637  -0.0881603
  -0.0774865  -0.2501384  -0.1363556  -2.3840976   0.1217036   0.9976465
   0.2391250   0.4533991   0.5622408   0.0825582  -0.3309047  -0.0235674
  -1.6981978  -0.1386762   0.2952252  -1.4925883  -2.1112874   1.9023182
   0.3966531  -0.1772476   0.0245954   0.4901131   0.0960555   1.2512712
   0.5074720   0.3533336   0.2250309   0.3698087   0.1744412  -0.1162732
  -0.4253520  -0.5919067  -0.1019804  -0.1792836   0.2824177  -0.2380626
   0.0745821  -0.2751497  -0.0399585  -2.4158399   0.8663974  -1.3813872
  -0.7598579  -0.7485807   0.4895326   0.3798349  -0.2161739   0.0374143
   0.1872574  -0.0094805   1.4349838   0.0158320  -0.4787076  -1.5418659
   0.1535012   0.4878952  -0.1940893  -0.8534824  -0.2068015   1.5742016
   0.3533669   2.0530434  -1.4456949   0.4309740  -0.0148354  -0.0676592
   0.2883898   0.6038308   0.4203473   0.8814563  -0.4232278   0.1300425
  -0.0453576   0.3191422   0.1748602  -0.8710765  -0.3733380   0.1770971
  -1.6796089  -0.7378585   0.6647636   0.0801582   0.0695633   0.2570428
  -0.7156668   0.3020906   0.1380035   0.8004921  -0.5957683   0.7093703
  -0.1085829  -0.0251576  -0.3979624   0.2360337  -0.8684500   0.1439156
   0.4020445   0.6272892  -0.4923499   0.1990990   0.1448310   0.1374691
   1.1330708  -0.7731485  -0.0694620  -0.9716855   0.4377176  -1.4088726
  -0.2495045  -0.0543472  -0.3511218  -0.1835851  -0.6662295   0.1320272
   0.0269619   1.0830482   0.0182875  -0.0425212  -0.1454826   0.2858179
  -0.6205328  -0.5219297  -2.1947308   0.0272082  -0.5035095  -1.0331942
   0.0565761   0.0989751   0.3052463   1.2238157   1.5122163  -0.3992122
  -0.6289743  -0.4748821   0.2017153   0.0344737   0.1098394  -0.0526393
   0.7995641  -0.1682032   0.4480006   0.9935446   0.9635869  -0.6470173
   0.2151207  -0.2406375   0.0855079   0.4549580   0.8732709  -0.4278949
   0.2399136   1.0637285   0.5975673   0.2349691  -0.1406531  -0.0437404
  -0.6435177   1.2124269  -0.5066310   0.1284986  -0.8324442  -2.1540930
  -0.2530969   0.0956565  -0.1387712   0.0490173   0.9120767  -0.0459885
   0.6983626  -0.5256061   0.8126663   0.0931493   0.1836042  -0.2153831
  -1.5591215  -0.5645171   1.0381509  -0.7430551   0.0123643  -0.3620947
   0.0199585  -0.1056736   0.2927056   0.8318542  -0.0553652  -0.2750418
  -0.9912974   0.6753519   0.4506738   0.2554043   0.2567172   0.1388422
  -0.6889941   0.0136177   0.1336354  -0.1789481   1.1380986   0.3275863
   0.0657870   0.4201612  -0.2064787   0.0988036  -0.1544839   0.3092028
  -0.5257533  -0.8327961   0.6289901   0.4045522  -0.0545335  -0.4201461
   1.1319572  -1.1551135  -0.1388261   0.1257419  -0.1296854  -0.6358352
   0.1009545  -0.0057831  -0.0444017   1.9632670  -0.1241917  -0.4836367
  -1.1717889   0.4476930  -0.7749714  -0.1357643   0.2511187   0.0106676
   0.4607580  -0.2996429   1.3511745   0.5207467  -0.4209787   0.7594548
  -0.0980459  -0.1694618   0.1928965  -1.2017515   0.5037684  -0.5944677
  -0.7497883  -0.5011422   0.1474879   0.3691843   0.2317987   0.0830853
   0.0475941  -0.9067036  -0.7307088   0.5709879   1.3704700   0.0623155
  -0.1655709  -0.1356608   0.0308198  -0.4033063  -0.4630562  -1.2190323
  -0.2510058  -1.0421510  -0.4451414  -0.1629597  -0.2134522  -0.0090042
  -0.6874365   0.2012598  -0.3653254   0.4640668  -1.3880428  -0.8637684
  -0.0431979   0.3992478   0.0889975   0.8077716  -0.9698251   1.6789664
  -0.4309826   0.1924199  -0.8657022   0.2686530   0.0846690   0.2725130
   0.3069699  -0.7037817   0.2742677   0.3749915  -1.0693343  -0.9421305
  -0.3716366   0.3139932  -0.4535717   1.5920236   0.1389377  -0.8494092
   0.3603388  -0.9072303   0.4933882  -0.0106630  -0.1177268   0.0909439
  -0.9955357  -0.6567059   0.3140977   1.7365822   0.0690545  -1.0036389
   0.1881778  -0.2482209  -0.0690043   0.7335852   0.4030830  -0.7075875
  -1.8033541   0.2390729  -0.5240015   0.2966950   0.2657817   0.0046660
   0.6631273  -0.0036986   1.2549076   0.7481858  -0.0262507  -0.2919706
  -0.0983282  -0.0654659   0.0214019  -1.1908594  -0.2451745  -0.2206259
  -0.7527212   0.6229973  -0.3455674  -0.1315077  -0.1067042  -0.2081995
   0.1438169  -1.0046810  -1.1484207   1.3355178   1.1507677   0.7579251
  -0.1093895   0.1723121   0.2006364   0.2651310  -1.3019571  -0.2190621
  -1.0025312  -1.7365487  -0.9123095   0.2879912  -0.3190300   0.3648252
   0.3802244   0.6045170  -0.3805377  -0.7415612  -0.0143259  -0.7586184
  -0.2307429  -0.2712739   0.1825607  -1.1683586   0.3370177   0.3996710
   0.3134820  -0.1246534   0.7127939  -0.5254968   0.0079799  -0.2789956
   1.1968296   0.0078268  -0.7657374   1.2942896  -0.2266350  -0.9320866
   0.1726716  -0.2366569  -0.2636378   0.9036824  -0.0714938  -0.0115910
   1.1155108  -1.4515821   1.8136711   0.1258062   0.0076771   0.0003669
  -1.3154272   0.0690950   0.4035558  -1.3334911  -0.5241216   0.5324876
  -0.2442385   0.3103544  -0.0091900   0.0446118   0.5201012  -0.5413733
   0.5610670  -0.9635158   0.6486893  -0.0194538   0.1677043   0.1151128
  -0.2073080   0.3127071   0.4589649  -0.2995599  -0.0890613  -1.2593641
  -0.3301519  -0.4185205   0.2781732  -1.0369196  -0.6973571  -0.0840948
  -1.9262313   0.0051684   0.0574905  -0.0929251  -0.2721115   0.1469227
  -0.0072915  -0.7645208   0.6326696  -0.8249540  -0.6328362  -1.2877015
  -0.3029658  -0.0400775   0.2523038  -0.8112462  -0.1230888   0.3972174
  -0.0324319  -0.3678908   0.8378447   0.1085094  -0.0181989   0.1168225
   1.4381756  -0.4280722  -0.1990402   1.6668184   0.7100899   1.3791686
  -0.2160871   0.1402228  -0.1405459  -0.7126279  -0.8731104  -0.9742206
  -0.4377385   0.8138009   1.0376347  -0.2150848   0.0545626   0.0877920
   0.4297453   0.4572891  -0.5417842  -0.6086469  -0.9984739   0.6015499
  -0.3581665   0.0157702   0.3163464  -0.2832005   0.3358695  -0.1033931
   0.8901783  -0.0884174  -0.3746694   0.0926694  -0.3649871   0.4021215
  -1.3271130   0.8498370  -0.8081943   0.8936322  -0.4367452   0.5294765
  -0.1457763   0.0923391  -0.2040128   0.7167420   0.7896239  -0.4367499
   0.1468078   0.2411080   0.5791838   0.0935710   0.3205970  -0.2382044
   0.7328622  -1.3322222  -0.2654108   0.7136950  -0.1711092  -0.7979168
   0.5939744  -0.0447050   0.0017070   1.4905633   0.3655961   0.6603000
   0.7692468  -0.2524903   0.7121457   0.0345295  -0.2056295   0.0362146
   0.2194528   0.2486696   0.0150422   0.3334903   0.2959881   0.3698833
   0.0704677   0.1209207   0.4372562  -1.3569037  -0.3982748  -0.0274176
   0.1097526  -0.9639025  -0.9604104  -0.1682061   0.0738812  -0.0081434
   1.3226843   0.1230171  -0.2258135  -1.4589293  -0.7806065   1.2930272
   0.1745022   0.2522986   0.2457159  -0.1792772   0.8280851   1.0341399
  -1.2108555   0.4388973   0.5421234   0.1163737   0.3168439  -0.0107582
  -0.6750304   1.3156908  -0.2443159   0.6320129  -0.6260523  -0.4362983
   0.0458227  -0.0738368   0.1255502  -0.3831511  -0.2888742   0.0399926
   0.7084417  -0.8915949   0.3331216   0.3873301  -0.0125459   0.2125139
  -0.1574209  -0.4651480   0.9073026  -0.7308087  -0.1073245  -0.4510848
   0.2117657  -0.0075843   0.0546589  -0.7375593   0.2349355   0.4486614
  -0.0385426  -0.6388227   0.3455404  -0.2952928  -0.2873097  -0.0211839
  -0.5532612   0.1458936  -0.3726814   0.6294543   0.1230358  -0.0532890
   0.0135130   0.0979240  -0.0590717  -1.1908183   0.0493369  -0.2844582
  -0.9830422  -1.2094084   0.7926169   0.2928363  -0.3128040  -0.3994476
  -0.2415963   0.4325898   0.2697807  -0.4133310  -0.3657461   1.7689606
   0.0141936  -0.0280871  -0.1098804   0.7159317   0.0625929   0.5920759
  -1.2091022  -1.3718098  -0.3189416  -0.4751900   0.2722746  -0.0457402
  -1.1326314  -1.3886615   0.4589908  -0.4754560   1.3125215   1.1322894
  -0.1063258  -0.1690303   0.0012307   0.1854855   0.2774254   0.2686826
   0.0551861  -0.3429371  -1.0565776  -0.0325465   0.0450786   0.3870043
   0.7311285   1.1855764   1.0299307  -0.2917467  -1.2031059   0.2958220
  -0.2339960   0.0742196   0.1673160  -0.3493768   0.0519601  -0.0716317
   0.8461723   0.3817810  -0.4587609   0.1899302  -0.2706177   0.0371193
  -0.3857123  -0.5476637  -0.3402235  -1.5597421   0.2025048  -0.6518514
   0.1137371   0.2468841  -0.0591380  -0.6981089  -0.6972116   0.7981030
  -0.3172051  -1.4585073  -0.3582626  -0.0682259  -0.2691587  -0.0768231
  -0.4152797   0.2267659  -0.0957780  -0.0187228  -1.5027162   0.0799763
   0.4382823   0.2229767  -0.1372880   0.0197055  -2.0244627   1.4720170
  -0.1297883   0.6989010  -0.1565544  -0.1499747   0.1296319  -0.0073764
   0.7412552  -0.1877449   0.2562611   1.0825157   1.0289582   0.4136800
   0.4830745  -0.0179897   0.1030459   2.1633170  -0.6979219   0.2654544
   0.5040076  -0.3860750  -0.0446043   0.2819551  -0.0925693  -0.3988732
   0.1197038   0.5646819   0.9871564   0.4599233   0.3215300   1.3832990
  -0.0453950  -0.0619501  -0.2540312   0.3990834  -2.0734322   1.2111428
  -0.2644619   0.4653595  -0.8679377  -0.2133610   0.0283938  -0.0098083
  -0.8273472   2.0919776   0.2745078  -0.4573493  -0.6875114   0.9505457
   0.1328624   0.0868871   0.2558600  -0.4094365  -0.7162303   0.6968475
  -1.1216340   0.9243619  -0.0710133   0.2526435   0.1463109  -0.0690655
  -1.8881304   0.3639188  -1.4299593  -0.4066877  -0.8858165   0.4430759
  -0.0708900  -0.0206383   0.3017968   1.3158532  -0.4496889  -0.3497494
   1.0066596   0.2127384   0.4196353  -0.0324768   0.1088526  -0.3547164
   1.5349243   0.9121149  -0.3481937  -0.3466919  -0.4973993   0.1213016
  -0.0190400   0.1450934  -0.0712552  -0.9488216  -0.4178952   0.2209604
   0.1907324   0.0346753  -0.6036544   0.0832725  -0.1526911  -0.0457106
  -0.2688034   0.3954758  -0.1164587  -1.9540919   0.1474755   0.1342241
  -0.2542446  -0.2934233  -0.2943267   0.6860827  -0.0322148  -0.7105607
  -0.7113672  -0.3142442   0.0895423   0.0286725  -0.0643674   0.0356472
   0.5506654   1.1601439  -0.5047863  -0.2207037  -0.3920367   1.0770755
   0.1621396   0.2298060   0.2513504  -0.7507420  -0.7097304   1.1233048
   0.7484236   0.2004118   0.6086656   0.0870538   0.0976810  -0.1833220
   0.9195886   0.2077855   0.2387556  -0.9700094   0.5385190  -0.0174209
   0.0708980  -0.2093422   0.2715951  -0.1502742   0.6102870   0.3437321
   0.0221120  -0.1015768  -1.5208024   0.0879923  -0.3499522  -0.0957371
  -1.0919244   1.1221120   0.3601871   0.2148024   0.1668310  -0.4329327
   0.1445706  -0.1913722   0.1727691   0.1916176  -0.2880370   0.3373034
   0.0461781  -1.0654424  -0.5689406  -0.1495278  -0.2495730   0.2293903
  -0.2683813   1.2992582   0.6906499  -0.0162084  -0.8327146  -1.1702396
  -0.0387395  -0.2492960   0.1204872   0.1643157  -1.0236239  -0.5174089
  -0.6955950   0.7780365  -0.4195044  -0.2203190  -0.1533237   0.1940598
  -0.5751964  -0.7581456   0.7032841   0.1111832   0.0489353   0.0242897
   0.2543047   0.3085324  -0.0794996   0.3414114  -1.0088090  -1.1412297
  -0.5047148  -1.2567850  -0.1775566  -0.0016175  -0.3085814   0.4922450
   0.8593158   0.8648795  -0.0171821  -0.1698703   0.2733811   0.3904774
  -0.3486806  -0.2201407  -0.0763208   0.4178928  -0.1000575   1.5197358
   0.5502341  -0.7426061   0.0317027   0.1286270  -0.0963810  -0.0907145
  -0.5061063  -0.1447597   0.4241523  -0.4463281   0.3065510   0.2219953
  -0.1750403   0.2571806   0.2974018   0.8110709  -0.2159252   1.0186578
   0.2261118   0.4677989  -0.5182434   0.2367060   0.0277144   0.0624634
   0.8860480   0.0300576   0.1395468  -0.7988662   1.8182447  -0.3234055
  -0.2712315  -0.0373397  -0.1460492   0.1427845   1.1955670  -0.3693286
   0.4335414  -0.7291219  -0.9434017   0.1418983  -0.1695371  -0.2622950
   0.2071982   1.5833942  -1.1271454   1.2012720  -0.9243401   0.1339456
  -0.3611246   0.1889258   0.0291190   1.5717131  -0.1795988   0.6003922
  -1.1371489   0.9036476  -0.1426126   0.0507240  -0.2322877  -0.0429277
   0.5248510   0.8609435  -0.1144508  -1.0722290  -0.5941175   0.1677927
  -0.1461994  -0.1984025  -0.1064233   0.0784881   0.2221590  -0.5415385
   0.5160329  -1.3579845  -0.2224234  -0.1377949   0.1873207   0.0162152
  -0.3965119  -1.1298105  -0.1868207   0.5311924   0.2327477   0.3967741
  -0.1717045  -0.0448420   0.0340365   1.5329568   0.0954530  -0.0541819
  -0.5063394   0.8014584   0.1584199   0.0885566  -0.0813886   0.1146199
  -0.9925381  -0.9178421   1.1928142   0.1872302  -1.3281927  -1.3645334
  -0.4481883  -0.4291362  -0.1267614  -0.0004661  -0.3360588  -0.3993492
   0.3352012  -0.5253301   1.4790066  -0.1999584   0.0664925  -0.4174659
   0.5336167   0.7671197   0.5832354   0.9755410   1.4542191   0.2222058
  -0.0395741   0.1629198   0.0388086  -0.0727528   1.2256178  -0.4041691
   0.5740954   0.8282328  -0.0082260   0.2294606  -0.2780049   0.1036436
   1.5921540   0.6885216   0.3097879   0.0226890  -0.4348854   0.3879885
  -0.0945232  -0.2360562   0.0137187   0.4477389  -1.5875543  -0.2614021
  -0.7620814   1.4499491   0.7028906  -0.0165227   0.0022656  -0.0234307
   0.2572793  -0.8887531  -0.4985921  -1.1363982  -0.4227487   0.4989394
  -0.1309004  -0.1807769   0.0752559  -1.7040386   1.5353532   0.5846820
   0.6127716  -1.4875686   0.3814626   0.0499326  -0.1051405   0.1069393
  -0.1944015  -0.2281791  -0.9760476  -1.6271383  -1.3802580   0.4759001
   0.0887389   0.3113963  -0.2959730   0.9989215   1.2329971   0.7918169
  -0.3751437   0.2019806   0.4833746  -0.2363135  -0.1049010  -0.1370475
   0.3713240  -0.4053992  -1.5722597  -0.9158849   0.5629900   0.3937420
   0.0382566  -0.2810598  -0.1256903   0.4196739  -1.8740041  -0.3469091
   0.5645666  -1.7226475  -1.0507084   0.0180216  -0.0424992   0.0727214
   0.5885177   1.3861492   0.9167742   0.8918920  -0.2816947   0.1022642
  -0.0242994   0.0198963  -0.2991741   0.1029468   0.6068388  -0.0486607
  -1.3376870   0.8830408  -0.4126010   0.0064025  -0.3317241  -0.2920164
   0.7473793   0.8745757   0.4092339   0.0206734  -0.2238905   0.9920704
  -0.1602136   0.0231060  -0.1812119  -0.0995813   0.2334399   0.4418406
  -0.4159863   0.3282134  -0.1259871  -0.0143540  -0.0143337  -0.0410255
  -0.5528350  -0.2359754   0.8205258  -0.2492032   0.6009415   0.3906232
  -0.0925133   0.0436051   0.0534682   1.1804297   1.7725755   0.1465613
  -0.2495299   0.3919365   1.3315934   0.0300697  -0.1512485  -0.0298587
   0.3157790  -0.4040027  -0.0979958   0.1925060  -0.7857650   0.4678979
   0.0956373   0.1330289   0.0281871   0.9608270  -0.5038378  -0.5039165
  -0.5001456  -0.0374478   0.3114150  -0.0637500   0.0310479  -0.0231679
   0.0715090  -0.6515623   0.4330318  -0.8118159  -1.3006859  -0.3244047
   0.0926524  -0.1768586   0.4838957   0.2102054   0.3584947   0.1493046
   1.0374689   0.1852753  -0.2885003  -0.0282286   0.3042520  -0.0687698
   0.0559277  -0.5567278  -1.0231990  -1.0739183   2.2161882   1.7051848
  -0.2002603   0.0590556   0.3531989   0.7376880  -0.2131663  -0.4878885
  -0.8416516   0.9608952  -0.1640616   0.2080688  -0.2618024   0.1701680
  -0.0297014   0.9288201  -0.4224189  -0.7737339  -0.9830791   0.0991833
  -0.1155509   0.0943462  -0.2432706  -0.8154978  -0.2995814  -0.7826001
  -0.4179163   0.6020393   0.1264394   0.0085350  -0.0911760   0.2351512
   0.5337989  -0.6037091  -0.2053494   0.5900838   0.4567598   0.3008093
   0.0371256  -0.1612182  -0.1253673   0.6111645  -1.2936087  -0.7707496
   0.9727477   0.7797954  -0.3785309  -0.3607361   0.0914176   0.2034103
  -0.9527652  -0.1742359  -0.4730237   0.5842033  -0.1457985   0.0488635
  -0.1128240  -0.1500677  -0.0127798  -1.8128997  -0.4195996   0.6074415
   0.2915521   1.1599091  -0.2494838  -0.0631222  -0.0432814   0.3200779
   0.5136728   0.4142174  -0.5661166  -0.3812521  -0.3684250  -0.4710982
  -0.2063488  -0.2788903   0.2963993  -0.4265973  -0.0939490   0.1348941
   0.2142090  -0.0762238  -0.7448665   0.3243961  -0.1502518  -0.3093654
   0.0071127   0.2133507   0.7279582  -0.2992997  -0.6225895  -1.3127435
  -0.0198700   0.0071378   0.1488677   0.0963588  -0.7409391  -0.1422867
   1.4517792   0.0025679  -0.3911014   0.2667180  -0.2394454  -0.1971420
   0.7541435  -0.9005269   0.1388768  -0.9218712  -0.7581854   0.5253310
   0.0270459  -0.0751852  -0.4506706   0.9282559   0.5299931   1.6146047
  -0.3024831   1.7821206  -0.8976511   0.0392045  -0.1032963   0.1115224
   0.8369520  -0.6259593   0.6050851  -0.7619845   0.5134167   0.3237430
  -0.1746880   0.2479737   0.2109422  -0.0263293   0.1595108  -0.3714716
  -0.8716309   0.6825110   1.0511429  -0.2528928   0.4947132  -0.1931018
   0.1931242   0.0058636   1.4860700  -0.1139746   0.0231842  -0.3889021
   0.1563380  -0.0639707   0.0095799  -1.2106808   0.0899478  -0.0973504
   0.6952051   0.2939549   0.0726913  -0.2875095   0.0432753  -0.0414569
   0.2835039  -0.9850078   1.2712997   0.0115757   0.1352176  -1.3411487
   0.0235098  -0.1099367   0.3889146   0.1488822   1.8961790  -0.2346881
  -0.7645795   0.2870040  -1.0549403   0.1301726  -0.1530827  -0.0892544
  -0.3781870   0.7504499   0.1564588   1.1269481  -0.7181355   1.0132601
   0.1258468  -0.3712981  -0.2130059   0.7983634   2.7745228  -0.3427103
   0.3495984   0.5287315  -0.8665397   0.2325621   0.1439007  -0.2433424
  -0.5081121   1.6953096   0.0210761   0.2111555  -1.0089636  -0.1461937
   0.2394986  -0.0001344   0.0545604  -0.4299179   0.2949728  -0.2700215
   0.9071437  -1.3412265   1.9108051  -0.0902714  -0.0493172   0.1549040
   0.0004290  -0.8854119   0.7667751   0.9742115   1.1382940  -0.4283389
   0.4820006   0.4122454  -0.1188725   1.4134018  -0.7082750   1.0455177
   0.1515086  -0.7600442  -0.0859848  -0.0588510   0.1720943   0.0852794
   0.2009166   1.4056115   0.9405129   0.7220879  -0.1316342  -0.2746663
  -0.0002670  -0.0893418   0.1570086  -0.8696218  -0.2661143   0.6368846
   1.4899439  -0.6035051  -0.1552308  -0.1881525   0.3554633   0.0982044
   0.7640319   0.1190783  -1.5040331  -0.1438292  -0.7442372  -0.6140651
  -0.1164793   0.2473913  -0.0060133   0.2005533   0.2998418  -0.2462988
  -0.8744699  -1.2438378  -0.4678763   0.1187760   0.1168127  -0.0757394
  -1.3839912   0.2436372   0.1329912  -0.3296964   0.2455678   0.5222040
   0.0074033  -0.1620684   0.0464677  -1.7769603   0.8175954   0.2369422
  -0.4563607  -2.0050218  -0.0645018   0.1758261  -0.0147895   0.0438410
   0.6246983  -0.7419595   0.4116170  -2.0479298   0.1491314   0.1654522
  -0.5356818  -0.2690047   0.0341141  -0.4524328   0.2130960   0.1003652
  -1.2086409   0.4900334  -1.2348311  -0.1211616  -0.0448107   0.2305309
   1.3642710  -0.5750782  -0.0393883  -0.2115719   0.0214561  -0.2648229
  -0.2525592   0.2257770  -0.1264821   1.0063270  -0.9625968  -0.7207456
  -0.0575206   0.7452495   0.4388950  -0.1759063  -0.1008795  -0.4076000
   0.3673572  -0.7527170   0.6201131   0.8306296   1.0706129  -0.4002073
   0.1506921  -0.2874101  -0.3080932  -0.1780126   1.8119674   0.0796298
   0.0867940   0.8598157  -1.3552580  -0.2549775   0.4447601  -0.0524649
  -0.1760560  -0.2035491  -0.1509283  -0.6236870   0.8239200  -1.4998692
  -0.2242363  -0.0918914   0.1202236   0.7044747   0.1739461   0.1425070
  -0.3158269   0.8114197   0.1498540  -0.0655343   0.2007272  -0.0585974
  -0.4298216   1.3484089   0.5712528   0.4475133  -0.4183695  -0.1030829
  -0.1912273   0.2397571   0.0063930   1.3145385   0.3480839  -0.5713142
  -1.0325476   1.2119242   0.8345932   0.1694514   0.0500101  -0.0746753
   0.6193156   0.2507944   0.4739434  -0.3290483  -1.0542305   0.3189512
  -0.1106760  -0.1297954  -0.0454647   0.1332370   1.3006761   0.2899868
   0.5993655  -0.5746948   0.1575373   0.3173983  -0.0864715   0.0656622
  -1.5603739   0.6703783   0.1782912   0.5939906   1.3240393   0.6365968
   0.0976934   0.0138340  -0.1427916  -1.0487949   0.0763484  -0.3178003
   0.3975362   0.3591625   0.1966304   0.0607071   0.0271479   0.2711887
   1.2717675   0.6307922   0.3102558   0.1866897   0.7557551   1.0876732
  -0.0132069  -0.1643662  -0.3836432   1.8576586   0.8476629   0.1121540
  -0.1805957  -1.2473743  -0.3790610   0.2530767  -0.0434848   0.0420893
  -0.2236186   0.1746944  -0.1491770   0.6082681  -0.0443766  -0.3486890
   0.3726722   0.1888033  -0.2254289  -0.0317920  -0.1248457   0.7249264
  -0.3119927   0.9548060   0.0092143  -0.4018924   0.1674244  -0.0760701
  -0.0980406   0.1731622  -1.2391808  -0.2664444  -0.0635023  -0.3488937
  -0.0094484   0.0433595  -0.2488406   1.5246867  -1.1110821  -0.6977765
  -0.5237178   0.0721586  -0.7571467   0.2415749  -0.1607406  -0.0492255
   0.0551975  -2.4198370   0.4255508  -0.6031430   0.7996561   1.1871325
  -0.1619250  -0.2591789  -0.3732140   0.6281887  -0.5060176  -0.2916010
  -0.7656671  -0.8682575   0.2454457  -0.1141022  -0.0037598  -0.2076246
  -0.9421790  -0.4107491  -0.7191519  -0.0952811   0.2432217  -0.5345414
  -0.0461383  -0.0758547  -0.0776312   0.1444822  -0.3567778  -0.6886870
   0.4328863  -0.3918530   2.1153228   0.2473882   0.1301982   0.0470036
   0.8302072  -0.2219614  -0.3599943  -1.4301790  -1.0158627   1.1342888
  -0.3344648   0.1493656  -0.2231684  -0.4121041   1.4693426  -1.0176793
   1.1180649   0.4468810   1.3740782  -0.0158288  -0.1504348  -0.2515423
  -0.2175740  -0.4659109  -0.1634807  -0.6863033  -0.7405471   0.8552095
  -0.1525368   0.4175956  -0.3363691  -1.0742052  -0.7269009  -1.2564919
  -1.1784734  -0.9839973  -0.6818492  -0.2244224   0.0996041   0.1197269
   1.5228314   0.1596473   0.0761215   0.3216929   0.3677939   1.8173925
  -0.1698783  -0.0969073   0.1150115  -0.7905334   0.2273657   1.2853867
   0.4599293  -1.3957180   0.1422087   0.1858837  -0.1242240  -0.0398776
   0.3839978  -0.3836329   0.8350834   0.7899770   1.2950703  -0.3918081
  -0.2428034  -0.0688312  -0.1798594   0.7924840  -0.1001612   1.3020393
   0.9736080  -0.5029860  -0.6605729   0.0461759   0.0149884  -0.0013565
  -0.3520845   0.7211428  -0.2141465   0.9316931   1.3651574   0.6162588
   0.2799760   0.1407125   0.4113280  -0.1243172  -0.5578210   1.2972773
  -0.3381353   0.6584217  -0.2535963   0.1512848  -0.1212736   0.1906456
   0.1735661   0.2799647  -0.2632379   0.6124646  -0.0144490  -0.2319830
   0.0805575   0.0669662   0.0648484   0.3038447   0.8702773   1.5169389
   0.2738671  -1.0635458  -0.7976260   0.0533713  -0.0101115   0.0340555
   1.6180841  -0.1337503  -0.0716091  -1.2364691   0.4260047   0.0438944
   0.3178496   0.2164160   0.2321311  -0.1374140  -0.4073120   0.1585285
  -0.8537984  -0.2757940   1.0781512   0.2631721   0.1471659  -0.0171545
  -0.1960901   0.2053346   0.8329564   0.5729992  -0.3584981  -1.0162470
   0.0216598   0.4887636  -0.0665647  -0.8574997  -0.7124938   0.0933877
   0.6548821  -0.4240050   2.3247197  -0.0222949   0.0477000   0.2327954
   0.3954350  -0.3137400  -0.9368048   0.2869462  -0.0834870   0.5251794
   0.1276963  -0.0305725  -0.0320479   0.2246666   0.7776186   0.3943970
   1.4821404  -0.3909177  -0.2918829   0.1483317  -0.0062923  -0.0884186
   0.7079994  -0.9227354  -0.3425944   0.0465042  -0.7062982   0.2763205
  -0.0869807  -0.3405194   0.5986975  -1.1296508  -0.5791590   1.0519075
  -0.8542250  -0.9964834  -0.1330357  -0.0528682  -0.0074225   0.0377039
  -0.2555953  -0.0895219   0.3115036   1.1277115   0.1505055   0.7087983
   0.2860501  -0.3500444   0.1432797   0.4226312  -0.4168520   0.3260279
  -0.2258590   0.4199473  -0.6334986  -0.0226670   0.3782022   0.3714607
   0.2418633   0.6160619  -0.2342781  -0.4557654  -0.0452274  -1.7751106
  -0.0983048  -0.0486641   0.0325768   1.1706984   0.5147594   0.7975178
  -0.7619805  -0.4597829  -1.9497654  -0.1286352  -0.1162610   0.0107795
   0.5800896  -0.4486793   0.0468355   0.0706341  -0.7002655  -1.3327347
   0.1775033  -0.0187786   0.1541588   1.0064600   0.2642740  -0.8055491
  -0.1188805   0.4224959  -0.8313256  -0.0329121   0.0649006   0.1164594
   0.4185404  -0.3358712   0.0206857   1.1289845   1.2989559   0.2719166
  -0.3171815  -0.2625639  -0.0849651   0.7003909   0.3659456  -0.8998590
  -0.6511205  -0.5956521  -0.8129832   0.2720753   0.2118281  -0.3692422
   1.0348715   0.9267339  -0.7121460   1.1322213  -0.9377970   0.0807734
  -0.1570491  -0.1134982   0.2131984  -0.3270781  -0.9525955  -0.8272775
   0.2294242  -0.3951316   0.4016995   0.2103554  -0.1976980   0.2257021
   0.1128397  -0.9555354   1.8819922  -1.1178641   0.4024571  -1.6205542
   0.5526600   0.2313415   0.0290882  -0.0928225   0.9570033  -0.7359981
  -0.9787150   0.0441882   0.1606584   0.2217633  -0.0100350  -0.0385316
   0.4142506   0.0656345  -0.1463287  -0.2004081   1.1555244   0.7169200
   0.1271588  -0.1875229  -0.1866187  -0.8586820   1.1323192   0.2977616
  -0.6065663  -1.4228204  -1.7603688   0.0897519   0.3143397  -0.1006869
   1.6022204  -0.4240946   0.9105348  -0.3173774   1.3214344   0.7757487
   0.2786881   0.0491809   0.1966531   0.3778026   0.0043413  -0.1661630
  -0.2628071  -0.4440063  -0.0958308  -0.0060967  -0.3795640   0.4892369
  -0.2829541   1.6712102  -1.2651551  -0.1599661   0.7874053   0.6575891
  -0.0374330   0.3515292   0.2178736   1.2127872  -1.3091682  -0.8400207
   0.8349651   0.0675507   0.9011228  -0.0259598  -0.0060192   0.2964192
   1.0596106  -0.3498921  -0.8655704   1.3291951  -0.2217029  -1.4939975
   0.0148173  -0.0572114   0.1143973  -0.3673649  -0.2846703   0.9480230
   0.0313694   0.8972577   0.0554278   0.1650709  -0.1381589  -0.1168592
  -0.3029615  -0.2993059  -0.4577729   0.1780693  -1.5017885  -0.6104379
  -0.0516242  -0.1245303  -0.0946007   1.1617068  -2.1277924   0.0151474
   0.4882032   1.2420756   0.2486247   0.0010496   0.0885791  -0.2471530
   0.4399830   0.3718668  -0.6563047   0.2321827   0.9544065   0.1030982
   0.0633873  -0.0234870   0.0351332   0.6333434   0.2218475  -0.1318942
   0.3860720  -1.7220967  -0.3087356   0.1316020  -0.1642674  -0.1067472
  -1.2363656   0.9171530   0.7572588  -1.3604462   0.0940228   0.8697489
  -0.1928806  -0.0004444   0.1233046  -0.2314683   0.0609618  -1.0854965
   1.5033268   1.1758864   1.7723353  -0.0577956   0.2578732  -0.0065135
   0.7379411   0.9622672  -1.4855555  -0.2642150  -0.6198863  -0.5738707
  -0.1536909  -0.0507521  -0.0353297  -0.0646735   0.7743079  -0.8937759
  -0.0722981   1.5679512   0.7186860   0.2129581  -0.0006100  -0.1246946
  -0.8488753  -0.3132084   1.9982013  -0.6484038  -0.3653920   0.0704016
   0.1249814  -0.1123802   0.0852198   0.2775766  -1.5931715  -0.2903446
  -0.0478846   0.7408482  -0.8426484  -0.3063583  -0.1231439  -0.5125595
   0.4364462  -0.2398146   0.8032096   0.4631130  -0.5061939  -0.4281420
  -0.1012713  -0.1292700  -0.0805778  -0.9449081  -0.9472885  -0.1801481
  -0.4193793   1.1582546  -0.2228359   0.1005185   0.0214860  -0.4777882
   0.3420277  -1.4222696  -0.3799527  -1.4413027   1.7232032   0.2035479
  -0.0283931  -0.2942944   0.3817599  -0.3238274   0.5706288   0.5465247
   0.4231527  -1.9196538   0.7385465  -0.1375972   0.0013274   0.2543010
  -0.5095238   0.9429939   0.4241199   0.5790800   0.8084929   0.4748361
  -0.1386009   0.0812664  -0.2534322   0.5961278   0.9738411   1.2401704
   0.4038187   0.6488960  -1.0665638   0.3448741  -0.1865745  -0.0862437
   0.6146233   0.2968970   0.0745408   0.2910497  -0.7345725  -0.2584904
  -0.1058599  -0.0942379  -0.0073651  -0.5363821  -0.0273184   0.3753238
  -0.7629054   1.0004184  -0.1215880  -0.1199408  -0.1012698  -0.0458081
  -0.0415152  -0.5377401   1.0185229   0.1483978  -0.6365336  -1.0427400
   0.1415128  -0.3462042   0.3001243   0.1725402   1.0452927  -0.2419972
   0.3629697   1.3683716  -0.5150747  -0.1379244   0.2436058   0.1693605
   0.7016725   0.9971547   0.8826965  -1.3899763  -1.1706394   1.1900544
   0.0184614  -0.0362901  -0.0310070   0.3553793   0.9882423   1.0922853
   1.9084496   0.4758212  -0.8345413   0.1136487   0.3408313  -0.1364479
  -0.7480021   0.1247244   0.7769033  -0.2022576   0.9979131  -0.2147006
  -0.3239168   0.2238574  -0.0894598  -1.1931027  -0.0382138   1.2572156
  -0.8838091   0.0935783   0.0385360   0.2360765  -0.0860414  -0.1216135
   1.1737878   0.7032376   1.6436568  -0.0836739  -1.8175634   1.0236695
   0.3392318   0.1365813   0.4516708  -0.4530890  -0.6766030  -0.7343567
   0.2708577   1.6798971   0.8790575  -0.1474843  -0.3469402  -0.0047307
  -1.3138561   0.5633193  -0.3586829  -0.4049788   0.3350610   0.5644055
  -0.1991826   0.0195026  -0.0211843   0.0939619   0.1998935   0.3305682
  -0.7376413  -0.1580866   0.9100373   0.1503490  -0.2158609  -0.1454304
   0.9507718   0.4136508   0.5770311   1.7244245  -0.1416039   1.1539500
   0.2780787  -0.0137304   0.2346131   0.9834172   0.0290798  -0.0695138
   0.4829018   0.3453801  -0.0423845  -0.3706845  -0.0453055   0.2270605
  -1.0598905  -0.8672460   1.6782638   0.6959118   0.4112622  -0.8712107
  -0.1018582  -0.0787895   0.3495634  -0.9629206  -0.6186476   0.4135849
   0.3368944  -0.8782420  -0.0555964   0.0201138   0.0276986   0.0461077
   0.8725786   1.3276917  -0.4443121  -0.0179322  -0.4913400  -0.6975988
   0.0591967  -0.4396202  -0.3434286  -1.1713063   0.5915009  -1.2128303
  -1.1165757  -0.6028121   0.1787253  -0.1866726   0.3178442  -0.0421273
   0.4232655  -1.3518875   0.2493026  -0.4489981   0.4529872  -0.5703550
   0.0003269   0.1801460  -0.1564021   0.9211652  -0.0083033  -0.7373031
  -1.3675271  -0.6834126  -0.2476591  -0.2228125  -0.1271148   0.2596025
  -1.0333186  -0.5028205   0.3199785   0.5173195   0.5154175  -0.2318851
   0.0267731   0.1791031   0.2840480  -0.1115241   1.2284479  -0.0201521
  -1.5711838   1.7613838  -0.2439618  -0.4173145   0.2007404   0.0599732
   0.1394109  -0.4473161  -0.3380306  -0.2848710  -1.4934652   0.4786257
  -0.0453134  -0.1138203   0.3281317   1.4851687   1.3616009  -1.1451271
  -0.5683295   0.4138307  -0.3708448  -0.0703488  -0.2732186   0.1038706
  -0.2616596   0.1980457   0.3401625   1.0078297  -0.5647884  -0.7610606
   0.2700770   0.1171528   0.1005189  -0.9296071   0.0266943   0.0754534
  -1.0166885  -0.4220273   0.2187397  -0.1001805   0.0190060   0.1568990
   2.6869926   0.0610222  -0.0725541   1.9121624  -0.3028422   0.1707947
  -0.1556913  -0.2565570   0.4566894   0.5593154   0.5821267   0.3234161
   1.0634580  -1.4374505  -0.7583548  -0.2556515  -0.1221820  -0.0227266
   0.8934141   1.4891666  -0.9592863  -0.7830187  -0.3785616   0.8885382
   0.2356754  -0.2669983   0.1646076  -0.4777581  -0.8084133  -0.0195191
   1.3259941   0.4617271   0.3749340   0.1435266   0.1064000  -0.0084739
   1.6542165  -2.0040836   0.7026548  -0.0599863   1.2431382   0.4481622
   0.1517961   0.2136210   0.1003532  -0.9422213   0.0871944  -0.3151957
   0.4082325   0.7248970   1.0282688   0.0977457  -0.0048375  -0.0347415
  -0.5380802  -1.5061649   0.2663242  -1.1789855  -0.5789823   0.6259896
   0.0949110  -0.1815461  -0.2410904  -1.2784470   0.6451495   1.4978083
   0.1209769   1.0488442  -0.7501745   0.0177820  -0.2852804   0.1456941
  -0.1831445   0.0646389  -0.5059314  -1.4179192  -0.4530208   1.2152427
   0.0924375  -0.0168243  -0.0177846   0.7568844  -1.1739542   1.8335166
  -0.6485691   1.0206913   1.2154977  -0.0537738  -0.1085225   0.0938260
  -0.6400230   0.5346193   0.5373443   0.4293177  -0.9350529  -1.0549930
   0.1073683  -0.0478151   0.0614646   0.1471514   0.8153642   1.2299043
   0.2757006  -0.0061818  -0.7559760   0.5543568  -0.1308991  -0.1335301
   0.4128974   0.5734527  -1.4438802   0.1901784   0.7575706   0.5419745
   0.0960514  -0.0445970   0.0377057   0.3808178   0.0375025   0.4401916
   0.3758539  -0.1442532  -0.2901225  -0.0157039  -0.1319132   0.3680640
  -0.1096136   0.6149793   0.4761353  -0.1718484   0.0254978  -0.3864596
   0.1799279   0.1615805   0.1854339  -0.6348081   1.8832455  -1.3629298
  -0.3629695   0.7491541  -0.1742539  -0.1228143  -0.1422384  -0.2681022
   0.6133616   1.1017729   1.2633572   2.7562957  -0.9773835  -0.0114422
   0.0902723   0.1631379   0.0435306  -0.1355698   0.9979530  -1.5162094
  -0.0899504   0.5845475  -0.8728039  -0.0103713  -0.1990141   0.1665214
  -0.4267630  -0.2678010  -0.5279405   0.4058294   0.0275481   0.2986078
  -0.0105587   0.0793738   0.4154746  -0.7463275   1.4639173  -1.5942624
  -0.6050428  -0.8604930   0.6299626   0.2094937  -0.2197172  -0.1339726
  -1.8014337   0.1944280  -1.2062101   0.3959393  -0.6166853   0.4852806
  -0.1726988  -0.1411239  -0.1367031  -0.4978894   1.1297537   0.9560829
   1.3117419  -0.8046207  -0.0771464  -0.1122736   0.0326196   0.3145281
   1.2254759  -0.8291503  -0.1746168  -0.6071054   1.6042725   0.2123477
  -0.1377453  -0.0585334   0.2572294  -1.1479239   1.7286148  -1.3971443
   1.2507714  -1.7607429   1.8780526   0.1119306   0.2203758   0.2413306
   0.1227216   0.6999393  -0.0625507   0.6626120   0.9562127  -0.4825515
   0.1826691  -0.1993688  -0.2914343  -0.3686525  -1.3347631  -1.0615933
  -0.7644816  -0.4772598   0.3179612  -0.2850902   0.0546096   0.1221945
  -0.1652169  -1.1304597   0.3369585   0.6874987   0.5153365  -0.2532374
  -0.1427643  -0.1962585  -0.0442090  -0.3367398  -1.5822940   0.9236293
   0.1484573  -0.1111208  -0.4688443   0.0168214   0.2910392   0.2607549
   0.3433384  -0.0759706  -0.3474704   0.4114611  -0.0254493   0.0009443
   0.1153156  -0.1322139  -0.1514993   0.1163763  -0.4865651   1.6124082
  -1.4170154  -0.3122996  -0.6382614   0.3420302  -0.3325540  -0.1875229
  -0.3944165   1.5061808   0.6080510  -0.9422259  -0.7779907   1.3825988
   0.0443437   0.0327710  -0.0112432  -1.1056498   0.2390220  -0.4228993
   1.2325891   0.6365932   0.2067405   0.2414045   0.0936622  -0.2487842
   1.8093104   0.5400700   0.4535245  -1.9003025  -2.1090288  -1.0911292
  -0.2060428  -0.3150310   0.2339923   0.0475153  -0.8607920   0.2625473
  -0.8357726   0.5487365   0.4456555   0.2132829  -0.2492766   0.2960881
   0.6958278   1.3484198   0.0191584  -0.7791365   0.3641779  -0.3822021
   0.2857802   0.0179094  -0.0042381   0.1419816  -0.5388865   0.0940030
   0.4544880  -1.3324033   0.1068889   0.0402191   0.0231003  -0.1548341
   1.3294610  -0.9217874  -1.8950448   0.2334617   2.2402864   0.2102723
   0.1527069  -0.1454860   0.1611710   0.0915593   0.0971972   1.3086994
   1.5399767   0.3759391  -0.5840670   0.0494141  -0.0828603  -0.0931480
  -0.5594069  -0.7546334   0.5173144   0.1648273  -0.5497909  -0.8848887
   0.2402450  -0.3050094  -0.1295316  -0.1244119  -0.8217869  -1.1903154
  -0.1793696   0.6050568   0.2971265  -0.0228965  -0.2847390  -0.0282856
   0.1859068  -0.1327108  -0.6742616   0.4981383  -0.5496152  -0.9347680
   0.1316107   0.1667815   0.2161927  -1.3775411   0.6572913  -0.3740485
  -0.0438685   0.7370938   0.8816292   0.0742549   0.0054506  -0.1258676
   1.6406223   0.2443084  -0.5931943  -0.4870070  -0.7950870  -1.7699406
   0.0293293   0.0504538  -0.1259281  -0.3291111  -0.8071675  -0.2876247
   0.6045070   0.6377731  -1.3653650  -0.0615785   0.3324044   0.1261433
   0.3436016  -0.0701851   0.4517308   0.7852199   0.2204152   1.2654035
  -0.0107813  -0.2077913  -0.1186432   0.5021520   0.3851309   1.1163570
   0.0987280   1.1473001  -0.7856489   0.1205295   0.1217655   0.0623075
  -1.0986842   0.8234808   1.0336288   0.3758739  -0.5619230   1.5417708
   0.0219501   0.0471314  -0.3131857  -0.4122781  -0.7470705  -0.6058978
  -0.1095550   0.5112685  -0.4740106   0.3054981  -0.4573674  -0.0713607
   0.4739866   0.4932269   0.5761555   0.3984270  -0.3970759  -0.3529984
  -0.2896666  -0.1496129   0.1455655  -0.0701071   0.8109474  -0.4918694
  -0.7819002  -0.9702523   0.4977838  -0.0901043  -0.0162142   0.2574025
   0.4455130   0.7696019  -0.3803942   0.5039977   0.5729417  -0.3015209
  -0.3096201   0.3178483   0.0246642  -0.7681854  -0.1539741  -0.4142546
   0.9492002  -1.7040190  -1.3345957   0.0417128   0.4048087   0.0652839
   0.5025679   0.7699074   0.7762623   0.2013896  -0.3609379  -0.1871305
   0.0684723   0.0458501  -0.1398021   0.0768006   0.8837822   0.3367145
  -0.0340277   0.9609506  -0.9736534   0.0998299   0.2414262  -0.3324445
   0.1290771  -1.0886601   1.1332656   0.8239559  -0.2812026  -0.1096969
  -0.2475709   0.0075257  -0.1218635   0.1606401   0.8428609   1.2509017
  -0.1413866  -1.1334509  -0.5374075   0.3683400  -0.0327054   0.1723624
  -0.1524514  -0.2844584   1.3200160  -1.4798461   0.0281310  -0.4389151
   0.0087425   0.1439856   0.0357689   0.5318348  -0.3403779   0.5043855
   0.0149979  -0.3413464   0.4648117  -0.1636274  -0.0303176  -0.0796179
  -0.2414110  -0.0782412  -0.0368308   0.7505297   1.0280310   0.7233974
  -0.0534760  -0.0040842  -0.0399155  -0.8551431  -0.3012194   0.5461565
   0.8256617  -0.3353580   0.1608968  -0.2816537   0.2150885   0.0815615
   0.1096354   0.4270673   0.0996113  -0.2807663  -0.4480865  -1.0444514
  -0.3024518   0.0658552  -0.2682428  -0.7886049  -0.8163256  -1.1839859
   1.0926414  -0.9740089  -1.8182606   0.0740768  -0.6859001   0.0158073
  -0.0870509  -0.6705385   0.2001566  -0.0932622  -0.8591099  -1.8053519
  -0.1599145  -0.1311592   0.0785564  -1.4138407  -1.8841656   0.5474018
  -1.4056780   0.5239207   0.7560241  -0.1599078   0.1897532   0.1398932
  -0.7076849   1.3669391  -0.3800072  -0.2205849  -0.8978748  -0.1344335
   0.2524509  -0.0098296  -0.2557160  -0.2398370   0.4940339   0.4422614
   0.0742179  -0.3481228  -0.2199844   0.0388715   0.2635787  -0.0049103
  -1.4706446   0.2525702   1.3497196  -0.7203656  -0.8865063  -0.6621346
  -0.0197379  -0.0552676  -0.1377340   0.3145071   0.2908022  -0.8468335
  -0.0717801   0.0169130  -1.2660185  -0.0110510  -0.0310742  -0.0803941
  -0.1365033  -0.4811930  -0.2678420  -0.0659803  -0.2182913  -0.2787952
  -0.0791232   0.2490446   0.2261504   1.4222635  -0.4698097   0.1631534
  -0.0671473  -0.7825635   0.6201199  -0.1051821   0.3089240  -0.2312985
   0.2591466   0.2953703  -0.0096478   0.7560150  -0.4165906   0.1954734
  -0.2881091  -0.1231297   0.2160695   0.1804731   1.6924133   0.7070764
  -1.9806980   0.2885976  -0.4958695   0.0708276  -0.3509389  -0.0827726
  -0.1634235   1.3402984  -0.1677458   0.7783417   0.8176221  -0.3769258
  -0.3973090   0.2187479  -0.0582191   0.3969876  -1.0258189   0.6175432
  -1.0540015  -0.1155842  -0.5652686  -0.0132490   0.0093451  -0.1277801
   0.1464849  -0.5634203   0.2467036   1.7180159  -0.7229389  -1.6261944
  -0.2065562   0.0740479  -0.0413729  -0.0080243   0.7942508   0.5554213
   1.9189205  -0.1228007  -0.4714191  -0.0904319   0.4314516  -0.0356099
  -0.2769438  -1.7806119   0.3077277   0.9403781  -0.3106881  -0.1768490
   0.2448222  -0.1738782   0.2554935   0.4117070   0.5505719   0.0982064
  -0.3045221  -0.2597967  -0.4456087  -0.0423264   0.2805545  -0.0110663
  -1.4340577   0.8179483  -0.2779231   1.5160372  -0.8655992  -0.7446254
  -0.2357461   0.1805980   0.0884940   0.1742363  -0.4038469  -0.0388522
  -0.8232200   0.5581017  -0.1288696  -0.0634840   0.1883274  -0.2006756
   0.3590311   0.5815815   0.0403263  -0.1541320   0.7035854   0.0623919
   0.0614517  -0.0945623   0.0453762   0.6388550   0.0012099   0.4395272
  -0.1797979   1.1989261  -1.1341746  -0.1046551   0.0598628  -0.3641098
   0.5996356  -1.2879395  -1.2024021   0.3182197   0.3192100   0.1197689
  -0.3562391   0.3459253   0.3691123   1.0022693  -0.4861755   0.7265491
   0.1112588   0.9128075   0.5792815  -0.0122808   0.0839421  -0.0674217
   1.6212422   0.5316071   0.1666130   0.4474084  -0.3140284   1.2617978
  -0.0845921  -0.0549990   0.2876828  -0.6480958  -0.1448092  -1.1183044
   0.7996971   0.7996719   0.8528299   0.0522068  -0.0060383  -0.3596561
  -0.7099116   0.0498392   1.5490725  -1.2012652   0.3389603   2.1577654
   0.1551416  -0.1469040  -0.3245299   0.5143892  -0.1837427   0.3263937
  -0.5913212  -0.2718733  -0.1761592  -0.0869137   0.2125762   0.2520672
   0.3277616   0.2375856   1.7166035   0.5517662   0.9219027  -0.8937294
   0.2196068   0.3895656   0.1830872   0.9428473   1.0754707  -1.0298247
   1.3965315  -1.4328367   0.6853656   0.2859841  -0.0719582  -0.2076865
   0.6143536  -1.3469887  -1.2409438   0.9559222   0.4801282   0.9026866
  -0.5527447   0.4349080  -0.0793381   0.7605312  -0.1022655   0.0098245
  -1.2701768  -0.3099789  -0.1810957  -0.0634241  -0.1474024  -0.1352755
  -0.3248047   0.9318098   0.9237795  -0.0407276   2.1005855   0.2383125
  -0.1533824  -0.0817800  -0.1861891   1.4443867  -1.7781202   1.0782492
  -0.9244065   0.4894399  -0.4407144   0.2160420   0.2103778  -0.0304372
   0.0914699  -0.9805641   1.6232446   0.3478393  -0.0402962  -0.1661758
   0.2760398   0.0872836  -0.0311558  -0.9192157  -0.1786605  -0.0595965
   0.3861464  -0.0609617  -0.5994393   0.1767445  -0.0509984   0.5303562
   0.2749275   0.9193984   0.3701932   1.1438171  -0.5429550   0.0292242
  -0.0511903   0.3821591   0.2588072   0.5650959  -0.8721359   1.4707489
   0.5078867  -1.1468737  -0.2390884   0.2531930  -0.2511030   0.2069199
   0.6388831  -0.2110074   0.0013042   0.0204574   0.1984800  -0.7781699
  -0.2085210  -0.0779441   0.1053489  -0.0004693   0.4479755   0.7334009
  -1.5630180   0.4902966   1.4669580  -0.1180282   0.0737549  -0.3887114
  -0.9340692  -0.1880957   1.3382946   1.1764839  -0.4310723   0.0093167
  -0.1378734  -0.1682937   0.1535589   0.6540270  -0.8830875   0.8231655
  -0.4132258   0.3573169   1.7771125   0.0992338   0.0284208  -0.1579332
  -0.8413668   0.1978905   0.0841731  -0.5580572   0.8979038   0.6821953
  -0.1325860   0.1563081  -0.3342122   0.7626318   2.2253401   0.2556092
  -0.9902347  -0.6036057  -1.0693227  -0.2425269   0.1007396  -0.4744484
  -1.2584171   0.6533893   0.4503834  -0.3873876  -1.1370821  -0.1067130
   0.1126734   0.0680553  -0.3871322  -0.9762711  -1.4776149  -0.3316840
  -0.8723909   0.5950607  -0.0000449  -0.2768340   0.2835639  -0.1676634
  -0.5638143  -0.2484039   0.1601732   0.3139257  -0.6289699  -0.7211806
  -0.3043203   0.0134768  -0.2528708   1.5261214  -0.4893729  -0.9713147
   0.7634771  -1.2010702   0.3570246   0.0287721   0.1630038   0.2376875
  -0.0140740  -2.0340827   0.0561056   0.4159643   1.0000275  -0.1479733
   0.1023240   0.0800955  -0.2190183   0.1187278   0.6685548  -1.2304131
   0.3910618   0.2436885  -0.2590881  -0.0251292   0.1387592   0.2376969
  -0.5029245   0.3003812  -0.6452200  -0.0765568  -0.0556426  -0.9325563
  -0.0892051  -0.6079108   0.2469600   0.9557831   0.0976581  -0.2930145
  -0.9169272  -0.8501781  -1.1873789  -0.3083634   0.1623652  -0.0977069
   0.0407407   0.8078597   1.3990781   0.5339862   0.6685815   0.2609989
   0.1918207   0.0138418   0.3599021   1.0704410  -0.0783864   0.8277388
  -0.2997870   0.5193592   0.0811398  -0.0659349   0.3987766   0.0665410
   1.6783817  -0.6804628  -0.1918957  -0.0098812   0.6402168  -0.0579426
  -0.0837348  -0.0750135  -0.2195640  -0.3741498  -1.0155979   0.0175482
  -1.3683960  -0.5100492   0.0391599   0.2180378   0.1215499  -0.1501084
   0.1082780  -0.6114573  -1.2321368   0.0019912   0.7741414  -2.0100548
   0.1565589  -0.0836926  -0.1648604  -0.9223837   0.1502944   1.0512160
  -0.0798656   0.4443538  -1.4597709  -0.2979186   0.0378330  -0.2434541
  -1.2225198   0.3215007   0.3401038  -0.4856255  -1.3577229   0.0860212
   0.0992396  -0.1620374  -0.1712113  -1.4722483  -0.7123346   0.5466111
   0.3876296   0.3884960  -0.2949345  -0.1046548  -0.3821464   0.2372910
  -1.2917917  -0.6675738   0.4288014  -0.0900826  -0.0863374   0.3167950
   0.1621567   0.3254637  -0.1853338  -0.2553263  -1.0146133  -0.0347415
   0.9813067  -0.4758813  -0.7043946  -0.2393153   0.0722675  -0.0930368
   1.5861310  -0.7439108  -0.0531005   0.4433953   1.5496478   1.9723146
   0.0648419  -0.1419233   0.0410594   1.3336227   0.4929893   0.4752102
   0.6690505  -0.0276230  -0.8082257  -0.1021795   0.4107246  -0.0864114
   0.7887827   0.3326822  -1.0008014   0.3040971   0.0082904   1.5476582
  -0.0129762  -0.1400082  -0.0846956   0.5748934  -0.5227908  -0.2316632
  -1.0538936   0.2486027  -1.2699744   0.0812090   0.0094113   0.0646065
   0.3793120   1.3356611   0.1807436   1.4498872  -0.5776066  -0.0162134
   0.0782343  -0.0360738   0.0055398  -1.3946682   0.2382208  -0.2692459
  -0.9991748   0.3461497  -0.5335051  -0.0193012  -0.4077959  -0.0658553
   1.7006676  -0.1950091  -0.1328805   0.3182310   0.8345378  -0.5984225
   0.0717106  -0.2680703  -0.2017870  -0.3224619  -1.0935535   0.1697639
  -0.1858713   0.9208432  -1.2019545  -0.1411604  -0.3065066   0.0277338
   0.5485521   0.6433164  -0.1607591   0.7167270   0.2826650   0.7679316
   0.0301769   0.0007239  -0.0720382  -0.4662087  -0.0506353  -0.1103194
   0.0959845  -0.2784587   0.7075521   0.3036243  -0.2535224   0.1453586
   1.2254298   0.5510770   0.6119087   0.7673630   0.5024677   1.5162679
  -0.0286631  -0.0717246  -0.1132556  -0.0305289   0.7859803   0.1130610
   1.0167804   0.2473580   0.0104520   0.2435485  -0.0805822  -0.2224887
  -0.1323168  -1.3666422   0.1043995   1.1674712   0.3645701  -0.3939297
  -0.0072111   0.4108739  -0.0131457  -0.4594246   0.9923641   0.1247005
   0.9306419  -0.6946337  -0.4550264  -0.0049137   0.1747066   0.0379480
   0.1802273   0.9499018  -0.1028134   1.1397800   0.1633163  -0.1447158
   0.0766398  -0.2074676  -0.1773970   0.1889758   0.6575119   0.9350496
  -0.0945689   2.0125337   1.2314460  -0.1963433   0.2314918  -0.0806359
  -0.7769633  -0.0421254   0.8449278  -1.4718304  -0.3861180   0.0839828
   0.0594880   0.0967709   0.1108556   0.6662668  -1.0942786  -0.3135701
   0.3526453   0.0999957  -0.2756606   0.2572748   0.1451845   0.0991969
  -1.3109360   0.1763459  -0.1911105   0.9289695   0.6417814  -0.4125559
  -0.1641704  -0.3229607   0.0457566   0.4073910   0.0401654  -0.3571909
   0.8532333   0.7548317   0.9175388  -0.0229087   0.1824924   0.0667959
   1.7181795  -0.4168394  -0.1785753  -0.7095627  -0.9117067  -0.3699804
  -0.1749914  -0.1517732  -0.0563074   0.5767702  -1.1547354   0.6826981
  -0.0936592  -0.2796182   0.7778363  -0.1415872  -0.0003058   0.0183062
  -1.3019514  -0.4734411   0.2670949  -0.8997129   0.6497907   0.4608763
   0.0271403  -0.2921458  -0.2650708  -0.2349261   0.0580530   0.9024866
  -0.5169658  -0.5810367   0.4091573   0.0699892   0.1857146  -0.0640907
  -0.0378680  -0.8282081   0.4410670   0.7800111  -0.1168921  -0.4156404
   0.0158028  -0.1899485  -0.0696960   0.1862756   0.6159225  -0.1100790
  -0.1471319  -0.6885384  -0.5950063   0.0214926   0.1096428  -0.2462894
  -0.1162456   1.3462933   0.9851462  -0.8803743   0.0334316  -0.0572830
  -0.5503702  -0.0242819   0.1434362   0.1856148  -0.8507461  -1.1719018
   1.6592706   1.2234746   0.3536960   0.0248430  -0.0558083   0.0178394
  -2.3784316   1.6992935  -0.1686843   0.2752688   0.4369664  -0.7122520
   0.0250387   0.0318770   0.0151460  -0.5675079   0.4113189   2.0626254
  -0.1673134  -0.5417460   0.3826104  -0.1285244  -0.2081227  -0.2110491
  -0.0930046   0.3094095   0.0180785  -0.6517151  -0.3370714   0.9674276
  -0.1638144   0.2761402  -0.1390880   1.3820343   0.4041515   0.8212425
   1.0778118  -0.7139673   0.1271258   0.2827355  -0.2401340   0.0504386
  -0.3924786  -1.4474866   0.0471062   0.1137775  -0.5159478   0.3746289
   0.2464240   0.1429430   0.2885717  -0.0205395  -0.3263818   0.1917306
   1.3909919   1.4331683   0.1246599   0.1093380   0.2629212   0.0607901
  -1.1990594   0.1414079   0.2880113   0.7039337   0.7749934   1.0155274
  -0.0075016   0.3451678  -0.0112478   1.1176666  -0.7378829  -0.3257529
   0.0461862  -0.6375804  -0.4372323   0.0880806  -0.2024324  -0.1667818
  -0.2101792   0.2178776   0.3456977   0.1434084   1.2057335  -0.0091457
  -0.2126757  -0.2879381  -0.0002115   0.4136850   0.2029567   0.4029922
   0.5483274  -0.4458424   0.7199537  -0.1492907  -0.1405872   0.0758353
  -0.8958070   0.5542412  -0.6416444  -0.4457304  -0.7585956   0.7579607
  -0.1708363   0.0092447  -0.1189567  -0.0735069   0.0207922   0.5664660
   0.1461744  -1.0807126  -0.4853827   0.2598227  -0.1145824   0.0756431
   0.6152174   0.5445450  -0.2438108  -0.6728010   0.1766213   0.5733894
  -0.0470738   0.2435830   0.0915041   0.3279453   0.0957650   0.2045325
   0.5233825  -0.7467200  -1.1872553   0.3753497  -0.2604768  -0.0360608
   1.2777185   0.0212851   0.2549456  -0.1263475  -0.1207270  -0.2721238
   0.0004398  -0.1839166  -0.0043913   0.9929807  -0.2153288   0.4023789
   0.4293548   0.7301509  -1.3054242  -0.4081043  -0.1802943   0.0275522
   1.4147499  -0.8079637   0.1808365  -0.5152067  -0.3258954  -0.8724135
  -0.0409102  -0.1790979   0.2600102  -1.2863134  -0.3550054   0.0205213
   0.2647091   0.7635127   0.1739240   0.3743112  -0.2152327  -0.4129618
  -0.2259889  -0.7766503   0.4194153   0.1817939  -0.0411446   1.1229684
   0.1605896  -0.0254173  -0.0047274   0.6529971  -0.4800760   0.2292613
   0.4671193  -1.0762644   1.0626321  -0.1935042  -0.0072240   0.4610221
   0.0330883  -0.0131809   0.4981030   0.7466375  -0.3753470   0.5752339
   0.1441051  -0.1189442   0.1691402  -0.2611880  -0.9501832  -0.7917368
   0.5266231   0.5171480  -0.2891962   0.1677112  -0.0542765  -0.0167689
   0.7948077  -0.1205483  -0.9695743  -0.4743689  -0.3989858  -0.6077393
   0.2445647  -0.0907337   0.2209380  -1.1171440  -1.3346765   0.2303523
   0.5367979  -0.7953826   1.1979853  -0.0142864  -0.3246913   0.0342570
  -0.3369210   1.9627968   0.1728483  -0.7192727  -0.7830176  -0.8534160
  -0.1878555   0.1027118   0.2760693   0.7017148   1.4942293  -0.2470736
   0.9002582   0.1541497  -0.4127445  -0.0481584   0.0000231  -0.0450262
  -0.2927732   1.2492783  -1.6187379   0.2650020   0.6184394  -0.3068855
  -0.3690520   0.3346442  -0.0105224   0.2267009   0.4355597   0.7658806
   1.4146092  -0.0614772   0.8914685  -0.0153185  -0.2376421  -0.0660499
  -0.0023130  -0.6300499  -0.9114786  -0.7676603   0.7099900   1.2652240
   0.2168632  -0.1596055  -0.1866933  -0.6310919   0.0196472   0.8919474
  -1.1615387   1.3864415   0.2122047   0.0148202   0.1280738  -0.4401672
  -0.0587390   0.0537482   0.9538543   0.3187843   0.6724454   0.7017261
  -0.4827577  -0.3043518  -0.3108081  -0.6247411   0.9388637   0.6033528
  -1.1347710  -0.9511651  -0.4220213  -0.2715997   0.1226317  -0.2510914
  -0.0540462  -0.9299374   1.2344701   0.8444173  -1.4546533  -0.2706307
  -0.2064143   0.0415527  -0.1954930   0.1381948  -1.4159693  -0.4622061
   1.2540725   0.8365078  -0.8125659   0.4245503   0.1546226   0.1080729
   0.0314246   1.1185776  -0.2041132  -0.1080585   1.2219687   0.3504216
   0.2411962  -0.3975023  -0.1204947   1.0311705  -0.9085875  -0.7264841
  -1.1089127  -0.2571703  -0.1353281   0.1853066  -0.2408043   0.0506995
  -0.1804631   0.6540259   0.3609442  -1.2383109   1.6684812   0.3264171
   0.0169105   0.2133883  -0.3400794  -0.0639243  -0.3775386  -0.2368348
  -0.4518157   0.7928752  -0.4432145  -0.1083087  -0.2601403  -0.0209247
   1.1235478   0.4097522  -1.5989277  -0.7207678  -1.2305812  -0.9463574
  -0.0025164  -0.0644627   0.1052528  -0.3401505   0.4140104   0.1510953
   0.2661299   0.2361926   0.1654992   0.1771073   0.0327778   0.0811751
   0.9133354   0.9827972   0.0039195  -1.0264231  -0.0152064   0.0175398
  -0.0440582  -0.1367866  -0.0368576   1.0032908   0.7990189  -0.5498686
   0.6566054   0.8565356   0.4959823   0.0152118  -0.1770733   0.0652754
  -1.0705909   0.5607694   1.1624073  -0.2232843  -0.8017421  -0.9356241
  -0.0957059  -0.0212386   0.2148678  -0.2271170   0.5272204  -0.3123590
   0.4882849   0.4908580   0.0963364   0.0479516  -0.1956576   0.1070048
   0.9324904   0.8266558   0.4916041  -0.3380750   0.7060878  -0.2369248
  -0.2415622   0.1810210   0.1396735   0.9556840   0.5888297   0.4460939
  -0.5262516  -0.8006489   0.6271019   0.1347943   0.0366777  -0.1979659
  -0.1457107  -0.6788874   0.5535042   0.7453083   1.3035586   0.0321575
  -0.0116781  -0.0546822   0.0097585   0.3640451  -1.4312997   0.6230116
  -0.3481884   1.0213321   0.7025002   0.0831186  -0.0462041  -0.1181332
   0.1939487   0.2525199  -1.2917624   0.1584451  -0.7409176   0.6769710
   0.4032316   0.5440399   0.1123050  -0.0374822  -0.0016677   0.3214883
  -0.0415261   1.4451044  -1.0766305  -0.0323200   0.0371834  -0.0434131
  -0.7831354   0.7555298   0.5765373   0.8335792   0.3493378  -0.9936228
  -0.1214257   0.3588020   0.1193483   0.0185749  -0.6278213  -0.1814677
  -0.5036613   0.7454978  -0.9980141   0.0324554   0.0344763   0.3657295
   0.9562099  -0.4714851   0.3239765   0.3299687   0.7808275  -1.7479415
  -0.2834611  -0.2316854   0.0290931   1.0798596   1.8239166   1.2279741
   0.0321580   0.7755409  -0.0825475  -0.1536499   0.2271919  -0.3628025
  -0.2017055  -0.2375604  -0.2786890   1.0978289   0.1471529   0.8974525
  -0.3654130   0.0582078  -0.0055467  -0.1612796   0.4671020  -1.4750541
  -0.5541496  -0.6144421   1.1257252   0.3058203  -0.0134930  -0.3054653
  -0.6430864   0.0865546   0.9231914  -0.2957988   0.6954844   0.6231204
   0.1371379  -0.0191660   0.3132323  -0.3730974  -0.5731468  -0.5060623
   0.6472199   0.8416356  -0.2462936  -0.2170665  -0.0257625   0.3198612
  -0.5050862   0.1639428   0.7719209  -0.8053194  -0.2291558   0.5200149
   0.0905218  -0.1976750  -0.1946089   0.3798882   1.1669848   0.0041820
  -0.3872977  -0.5074841   1.3033504   0.1108401  -0.2221802   0.3121697
  -1.6938418  -0.6877493  -0.8353193   1.2822795   0.4206528   0.7977269
   0.2259364  -0.0414678   0.0900287  -1.3347266  -0.8723801  -0.3206651
  -0.2671688  -1.1628842   1.2841127   0.3354543   0.0226941  -0.0738079
   0.2510116  -0.8410863  -0.4635049  -1.2534356   0.5906346   1.0469710
   0.2000365   0.3777652  -0.2382413  -0.6206151  -0.1585958  -0.7273746
   0.8636247  -0.5973441   0.0974721   0.3263839   0.3177467  -0.1314633
  -0.1609205  -1.2109621  -0.7071097  -0.1349884   0.1607125   0.3219819
   0.0871285  -0.0288761   0.2989012  -0.2977722  -1.7579832   0.1452498
  -0.2172471  -0.0600081  -1.0966765  -0.0747751  -0.0156643   0.1844077
  -0.8169711   0.5987425   0.2389368  -1.6443186  -0.7082777  -0.2109115
  -0.0715003  -0.0192726  -0.3001666   0.0777216  -0.3334133   0.0633366
   0.3414404   0.7570257  -0.2435376   0.0171480  -0.3592532   0.1554620
  -1.2425923  -0.8432653   0.0781517  -0.7188975   0.8600354  -1.1582237
   0.0796035   0.0221955   0.1885985  -0.8495220  -0.5006859  -1.2509463
   1.2512978  -0.2770455   0.0001243   0.0306615   0.2289798   0.2296479
  -0.6188445  -0.3960333  -0.3225860  -0.5246961   0.6330622  -0.7783635
  -0.1286393  -0.0391327  -0.0521205   0.2019998   0.1072863  -0.2365105
  -0.5284972  -0.5375998   0.2944991  -0.0325216   0.0955303   0.1472732
  -1.3751082   0.4556844  -0.5527597  -0.7440773   0.3329064  -0.2503031
  -0.1927361  -0.1142900   0.3373933   0.1051826  -0.2185146   0.3337932
  -1.5932963  -0.1143751  -0.3139406  -0.0787862   0.2067756  -0.0491407
  -0.0088006   1.0481791  -0.5177640  -0.5457208  -0.2630730  -0.0147844
  -0.4582270   0.0833020  -0.0839154   0.5480022   0.4238991  -0.6753042
   0.4851514  -0.4257455  -0.0835691   0.0250296   0.2137580   0.1669486
  -0.3740869  -0.9066033  -0.8922002   1.0872114  -1.1462920   0.4016301
   0.2277480   0.1844084  -0.3549743  -0.0480606   1.3607134  -0.9883753
   0.0514952  -0.3349624  -0.2422050  -0.2903141  -0.1305712  -0.4080165
   0.7765517  -1.0618933  -0.2634601   1.0276680  -0.3400594   0.5812677
  -0.0857751   0.1835601   0.0350304  -0.0674089   0.1553645  -1.4340709
  -0.3468093  -0.7465572  -1.0227726  -0.1822163   0.0583396   0.1768860
  -0.1203056   1.0461334   1.4502451  -0.5802305  -1.2424217  -1.9053220
  -0.0046348  -0.2497323  -0.0716728   1.4436440   0.3826455   1.3365017
   0.4577945   0.1905852   0.7529538   0.0535708   0.1803757  -0.1867117
   1.1284875  -0.1243532  -0.3243942  -0.6661527  -0.4644522  -0.4367486
   0.0488466  -0.0667426   0.0033649  -0.0331474  -0.6858341   0.3562409
   0.8118485  -0.0447485  -0.6007096  -0.1149892  -0.0605992   0.0491309
   0.1276017   0.4920701   1.8597634  -0.4101610  -1.6175176  -0.3508144
  -0.2274818  -0.1777286  -0.1376912  -0.3310189   0.1557098   1.2438998
   0.1940116   0.3841807  -0.8566136  -0.2614498  -0.1267594  -0.1291850
   0.9524825  -1.6145837   1.2260424  -0.6783164  -0.0068743   0.2830566
  -0.6449533   0.0031099   0.0578823   0.0449689   1.3019787   0.9929261
  -0.4255582  -0.8901705  -0.0079443  -0.1311424   0.2548269   0.3019357
  -0.4628364   0.7241441  -0.6627928  -0.7885687   0.2633213  -1.4285611
   0.1245821  -0.2124672   0.0799268   0.3537610  -0.1050478  -0.3636784
   0.9587148   0.3785656  -0.1846962  -0.1198056   0.1398614  -0.2723203
  -0.3713477   0.1128559  -0.1996394  -0.7075383  -0.9730000   0.0989766
   0.1483182   0.0747106  -0.1427329  -0.1348799   1.3577471  -1.5516044
  -0.1883792   1.0497787  -0.2874531   0.1794746  -0.0721000   0.2659128
   0.4798661  -0.5162082   0.1055851   0.0446079  -0.1866314  -0.7353678
  -0.0886234  -0.2612461   0.2780092   0.2228990  -0.9482653   1.5653844
  -0.0450623   0.0977058  -0.7665431  -0.3595000  -0.1552802   0.2213875
  -0.8936557  -0.6393882   0.7335808   0.3988982  -0.1275484   1.2611532
  -0.2448054   0.2542316   0.2101586  -1.2005628   0.4581941   0.1947767
   0.2371668   0.5543478  -1.2803470   0.1254329  -0.1288531  -0.3889163
   0.0938950   0.7398036  -0.5531962  -0.2526614   0.5407817  -1.2390383
   0.2721702   0.2813689  -0.2718942   0.4965419   0.5067678  -0.2127249
   0.5270025   0.4868648  -1.3505147   0.1705216  -0.0749416  -0.0878561
  -0.3590647  -0.5579396  -0.9781771   0.5840317   0.4274632   0.4098464
  -0.0372602   0.1982785   0.0074607  -0.7486551   0.1495888  -0.7118539
   1.5569853   1.3318678   0.0416472   0.1731795   0.0785861  -0.2966213
  -0.5088999   0.6708061  -0.1000195  -0.3880362   0.5252903  -0.2294224
  -0.3276729  -0.1393750   0.2337898   0.5372848  -0.5326863   0.4871604
   1.0067321  -0.3625653  -0.3978879   0.4759780  -0.1573668   0.0945194
  -0.5561635   0.3443374  -0.0052487   0.0233516   0.2164034  -0.7696036
  -0.1153132   0.2496480   0.0417126   0.6143533  -0.3884771   0.1884021
  -0.0764887   0.7121466  -0.1643806   0.3608366   0.2373993  -0.0585727
  -1.0767952   0.9660889  -0.7712943   0.4586996  -0.5545651   0.6710293
   0.1023286  -0.0782649   0.0610726  -0.7172121  -1.7870615  -0.9334155
   0.5392148  -0.3810118   0.4275530  -0.2097637  -0.3948586   0.3369876
   0.1545945   0.1835109   0.5910465  -1.1245823  -0.7300293   0.9797595
  -0.0312909  -0.1693506  -0.0945620  -0.0360313   0.7129086   0.6364831
   1.1501746   0.0441836   0.0083191   0.3796633   0.3738906   0.1743578
   0.9191992   0.9556736   0.8010300   0.1290161   0.8976482   0.0738709
   0.2603825   0.0074251  -0.3077158  -0.4332294   0.5402196  -0.9702752
  -0.8119193   0.0668889   1.0335410  -0.0671195  -0.4135725   0.1143867
   0.9176115  -0.5200768   1.2632245   0.6100401   0.2478776  -0.6368351
   0.0097995   0.1908504  -0.0644752  -0.8111811   0.3709300  -0.4101413
  -0.0125529  -0.8022926  -0.2336430  -0.1605557  -0.1342829   0.0642069
  -0.1848810  -1.3685553   0.0675103   1.1752695  -0.5541784   0.2284039
  -0.0783203   0.1097247   0.0351421   1.3728001  -0.5271175  -0.5045443
  -0.8617911  -0.7978392  -0.3173662  -0.2162221   0.0522155  -0.2869815
  -0.5734303  -0.7029206  -0.5287828   0.7210056  -0.8162921   0.5577499
  -0.0953143  -0.1132634   0.2787995  -0.2268579   0.1665688   0.5428861
   0.4738199   0.6152675  -0.0072079  -0.1814790   0.0623170  -0.2506448
  -0.9196168   0.6081991   0.3578952  -0.4191873   0.1480070   0.1982750
  -0.0315054  -0.0869571  -0.3431123  -0.3472498  -1.3095560  -0.1497254
   0.4600875   0.2241426   1.3082927  -0.1202086   0.1613253  -0.0849814
   0.1989572   0.8927710  -0.7179369  -0.0946253  -0.4930863   1.1243975
   0.2634328   0.0975893  -0.1397979  -0.0267476  -0.7577132  -0.4263159
  -0.8113022  -0.0568761  -1.1341755  -0.1503376   0.0242410   0.1659757
   0.0187856   0.7387499  -0.2847941   0.1799547  -0.9436056  -1.1691633
  -0.0869604   0.0973410   0.0020353   0.1781817   1.9707304  -0.4500068
  -0.7158303  -0.3130246  -0.1454313  -0.2615456   0.1348860   0.5092902
  -0.7360716  -0.6680734  -1.6024566   0.3637972   0.4819706   0.2077032
   0.0460411  -0.2842346   0.0893062  -0.0746847  -1.4608506  -2.0777709
  -0.3670307   1.4896749   0.0196648  -0.4691635  -0.1129072  -0.0658369
   0.8418359   1.2564048  -0.6671410   0.3539224   0.1837597  -1.0804197
  -0.3619736   0.2099558   0.0390402   0.3490379  -0.1254844  -0.3807432
  -0.1102092  -0.9045917   0.3455806  -0.0199166   0.1600609   0.2701426
   0.3852669  -0.1948608  -0.0251192   0.0371289  -0.0683934  -0.8052040
  -0.1842282   0.0371521  -0.3106552  -0.4645816   0.8928266  -0.0360375
   1.8092275   0.5152224  -0.8323841   0.0267654  -0.1295635   0.0626188
  -0.0847151  -0.2034892  -0.5705181  -0.4154837   0.3147857   0.2824402
  -0.1340238  -0.3321500  -0.2730687  -0.6154540  -0.0029021   0.4320340
  -0.2222918  -0.5344713   0.2052774  -0.2352913   0.2596437  -0.0907485
  -1.2094777  -0.8299671   0.7809485   0.9962121   0.8480667  -0.7288474
  -0.0946848  -0.0092574   0.1238554  -0.6582481   1.4657426  -0.4525367
  -0.2001132   0.1842946  -1.3363706  -0.1724136  -0.1908352  -0.0299856
   0.1018353  -0.7854848  -0.0649927   0.2921719   1.6883587  -1.6819825
   0.0886782   0.0527913   0.1381668  -0.1018332   0.5326065   1.0284591
   0.8381382  -0.6619728   0.0590345   0.0714411  -0.3205964  -0.2243933
  -0.1340655  -1.0321736   0.9089002   2.4528430  -0.0877487  -0.1678496
  -0.3010376   0.1222737   0.0145495   0.4237992   0.1141738   0.2547468
  -0.3528485  -0.0389722   0.7661908   0.0883875   0.2762611   0.1756408
   0.9833166   1.5248293  -0.5018933   0.5974572  -0.2003895   0.3964244
  -0.0127283  -0.3612358  -0.1362662  -0.0139747  -0.0447749  -0.5504623
   0.4386636  -0.0988297   1.4797047   0.1976350  -0.0189466  -0.0965629
  -1.1082811  -0.4612751   0.7828655  -0.0721329  -1.3550557   0.0696561
  -0.2917816  -0.1295003   0.0525828  -0.0971835   0.3403328   0.9014440
   0.3870453  -0.3207297  -0.4328190  -0.3872933  -0.4851469   0.0148640
  -0.8603382   0.3437496  -0.4617899   0.3054061   0.0901208   1.5876861
   0.0296183   0.1501269   0.4606730   0.1159184  -0.5002177  -0.1088885
  -0.1222831  -0.0209989   0.7889271  -0.2390456   0.2268963  -0.1943235
   0.2666135   0.9412207   1.2214366  -0.1752177  -0.0962619  -0.5604187
  -0.2585059  -0.0621724  -0.0688142   0.2323137   0.3163263   0.9944527
  -0.5062282  -0.4924696  -0.3658693  -0.1204497   0.0803179   0.1598157
   0.8450645   0.5912355   0.0750409  -1.2088740   0.4403259   0.2403326
   0.3701215  -0.1622266  -0.2735942  -0.7912406   0.4944215   0.3560740
   0.3937057   0.9921737   0.7310385   0.0356404  -0.0514836  -0.2193160
   0.6949367  -0.5141056  -0.0609369  -0.7729681  -0.7036604   0.2524345
   0.1456864  -0.0404236   0.5408189  -0.9871036  -0.7994628   0.3397269
  -0.2230669   1.0365946  -0.4170469   0.2920461   0.0374817  -0.0600536
   0.2199855   0.1619870  -1.0596665  -0.9480146   0.2651641   0.2035041
   0.0365488   0.0273361   0.0711932   0.1035864  -0.4338201  -0.1652589
  -0.5041929   0.2139612   1.1526780   0.2472071   0.0362540   0.1905891
  -0.5164199   1.1144154  -0.3457499  -0.1228248   0.2308730  -1.4108728
  -0.5517262  -0.1894678  -0.1076514  -0.6396477   0.4044711  -1.4481812
  -0.7459420   0.7722545  -1.7699109  -0.1206614   0.1208133  -0.2879666
   0.5216224   0.1339236  -0.2691544  -0.5974401  -2.1549003  -0.3478958
  -0.3733319  -0.0596625  -0.2409467   1.4482460  -0.7128222   0.3500420
  -0.8181732  -1.3373690   0.2801583   0.1827429   0.0511720  -0.1352348
   0.7039945  -0.3382833   1.2691199   0.3445219  -0.1967726  -0.4494019
   0.0022339  -0.0776558   0.1694345  -1.0516781  -0.5255449  -0.7513207
   0.6251075   0.3570479  -1.2036120  -0.2626815   0.1937977  -0.2221464
  -0.4486027   1.2662466  -0.5766397  -0.1179006  -2.2624958   0.7945222
  -0.0987488   0.1041227  -0.3079273   0.2749184  -0.9586475  -0.6698379
  -0.2112744  -0.1672434   1.3677862  -0.0093617  -0.2300388  -0.1636377
  -0.3310674   1.0039970  -0.0085787  -0.9069690   1.0167204   0.1507700
   0.0276295   0.3531890   0.0498924   0.4266338   1.9672726  -0.7820762
  -0.8277500  -0.4958305  -1.9622070  -0.1154487   0.1001620  -0.2077110
   0.0530171  -1.1262494   0.1519350   0.1442363  -0.8085566   0.8121014
  -0.1378777  -0.1438495   0.0352585  -0.1851975  -0.3323258  -1.2900225
   0.4180511  -0.2048199   2.1158152   0.1054980   0.1580220  -0.0508000
  -0.7292582  -0.5534555  -0.5017688  -0.1119591   0.6086474   0.7084596
  -0.0412229   0.4156193   0.1866215  -0.7373769   2.1168189   0.8368672
  -0.2252211   0.6863763  -1.7558104  -0.0008519   0.1867954   0.4641413
   0.1512940   0.7216324   0.1191611  -0.0140913   1.3530896   0.7834669
  -0.0118931  -0.1232240   0.0170919   0.4624835  -0.2259912  -0.7980846
  -0.2489253   1.1492084  -0.0246928   0.0080451   0.0733620   0.1086216
  -0.1612686  -0.2527651   0.3212429  -0.4225667  -0.5776612  -0.3415119
   0.1648066   0.5198856  -0.1484276  -0.7047658  -0.1359305  -0.1648637
  -0.2737581  -0.8363430  -0.3066590   0.2547284   0.0056120   0.2884070
   0.8465661   0.3816044  -0.9975156  -0.9126972   1.1662620   1.9988238
  -0.2785694  -0.4553768  -0.1303632  -0.4952899  -0.6626743   0.7220210
  -0.1311684  -0.2237907   0.0756757  -0.1711392   0.1393117   0.1101910
   0.0528134   0.2926975   0.7653089  -0.0248706  -1.3559428  -0.1872102
  -0.0201340   0.0718181   0.1211540   0.4491306   0.0803845  -1.2918551
   0.9537468   0.5543433  -0.6194304   0.1467273   0.1612692  -0.1336893
  -0.6509863   0.0413930   0.4121344   0.1895895  -1.4535630   0.3696801
  -0.4690961   0.0197589  -0.2802819   0.6447028   0.4875607   0.7635999
  -0.4240321   0.9153088  -0.1876970   0.2216145   0.1191667   0.1645531
   0.8310430   0.3788015   0.8844992  -0.2529259  -0.2926152  -0.3160838
   0.1166587  -0.3822342   0.1831257  -0.7064342   0.9489775   0.1877567
   0.0770752  -0.7297204  -1.2454789  -0.1238502  -0.0440355  -0.1004955
   0.7806134  -0.7620158  -0.5457035   0.1043188  -0.5600120  -1.5786241
   0.1500984   0.5536182   0.0557246  -0.3418435  -1.3807771   0.6499699
  -1.2936591   0.0885969   0.6901526  -0.0781410  -0.1626471   0.5095376
   1.1603800  -0.8514385  -0.6172871   0.4444063   1.3270742   0.4741967
  -0.2434443  -0.0796945  -0.2045702  -0.3803493  -0.4634387  -0.2812957
   0.3165630   0.5468246  -1.2543267   0.0650506  -0.0598448   0.1109229
  -0.1517890  -0.5880245  -0.1711148  -0.2512827   2.0740950   0.3905698
   0.3226049  -0.1200483   0.3288930   1.2321620   0.1548589   1.3893166
   0.0024544  -0.5768051   0.1251688  -0.0997721   0.0705188  -0.2823474
  -0.5610389   0.4006117  -0.7540861  -0.0594190  -1.1868378  -0.0465822
   0.0795914   0.2719567   0.0106759  -0.7212598   0.1730812   0.3160054
  -0.7777373   0.4371501  -0.0503158  -0.0239120   0.0163165   0.1078361
   0.8579828   1.6149867   0.2418473   0.1552241  -1.0089892   0.7027641
   0.0417253  -0.0598892   0.0043837  -1.2194129  -0.8119243   0.1895809
   0.4176162  -0.3061579   0.6494836  -0.3863599  -0.0332751   0.0958801
  -0.6601568   0.9915906   1.0029018  -0.4276628  -0.2988542   0.4742876
  -0.0907818   0.0438550   0.0687710   0.4670768   0.0426500  -0.4873747
   0.0347789  -1.0234326  -0.9464532  -0.2190087  -0.1043479   0.0828229
  -0.4221864  -0.9389809   0.8237727  -0.3320875  -0.4108715  -2.0944374
  -0.1937664  -0.1474041   0.0137017   0.3514208  -0.4534627  -0.3690255
   0.0020198  -0.4804816  -0.1528381   0.1574771  -0.0485568   0.0323107
  -0.8053808   0.3046427   0.4053751   0.4809588  -0.4589241   0.5188366
  -0.1762263   0.0768233  -0.4538032  -0.7736374  -1.0529398  -0.2898313
  -0.3209862  -0.0978890  -0.2357458  -0.2373408   0.0038949  -0.2450149
   0.0989688  -1.0959969  -0.1460168   1.0844275  -0.0122336   1.0943841
   0.1175301   0.0960047  -0.2473261  -0.0501386  -0.1434744  -0.3413403
   0.4866200   0.3036408   0.1679982  -0.3311142   0.2700832  -0.3420621
   0.5638266  -0.6382757  -1.1618857  -0.6326604  -0.6445702   0.7492976
  -0.1627263   0.0064847  -0.1178852  -0.5492698  -0.6453104  -0.9649088
  -0.5105022   0.6228846   0.5850037   0.0044105  -0.2332384  -0.0861958
   1.0582713   0.4972207  -0.5612926  -0.2171984  -1.0939997   0.8429298
  -0.2423324  -0.0675532  -0.0318854   0.1193673   0.0584017  -1.6886295
  -0.0027369   1.4749886  -0.7888554   0.1492143   0.1783206  -0.3820306
  -0.3020167   0.6840714   0.0213838  -0.1947567   0.4120284   0.2007036
  -0.2491301  -0.0694539   0.0005459  -0.1244615   0.4284184   0.4952519
  -1.1840742  -1.7331899   1.4975852   0.0434066  -0.0606909  -0.0091736
  -0.1793715   0.7533000  -0.9068493   0.2906574  -0.2521836  -1.2196984
   0.0379332   0.0144262  -0.0563792  -0.2983300  -0.1924376  -0.5568163
   1.0342400  -0.0859503  -0.1584334  -0.1570941  -0.1594697   0.0053715
  -1.0905619  -0.7172917  -0.8063033  -1.2723578   0.0279568   0.2393622
   0.1891742  -0.0764970  -0.4416197  -0.4748845  -0.7318483  -1.0406680
   1.4182540   1.5422219  -1.0420605  -0.1124198  -0.1109058  -0.1918408
   0.8586230   0.1674918  -0.9667731  -1.7447317  -0.1581085   0.6495989
  -0.2459119   0.1113207   0.0075240   0.6187501   0.2527430  -0.3133088
   0.0744716   0.8866180   0.3986263  -0.1525661   0.1578349   0.1401706
   1.4710447   1.3188148   0.5208853   0.0953858   0.3546024   0.3563867
  -0.1832388   0.1269606  -0.0611578  -0.6376369   2.0354826  -0.5571975
  -1.0260683   0.9363741   1.4028162   0.0943849  -0.3869874  -0.1078685
   0.6476294   0.0195659   0.1175900   0.9317845   0.4649733  -0.5311139
   0.1358866   0.1377544   0.3062932   0.5481252  -0.7079281  -0.0028900
  -0.3859971   0.2052577   0.8953398  -0.2015253  -0.0758437  -0.0250351
  -0.8399703  -0.3347030   0.3776512  -0.0463218   1.1852084   0.3884092
   0.0913262   0.1077865  -0.0504547   0.4775332   0.0859778   0.4062929
  -0.8295319  -0.1724632   1.1736972  -0.3574163   0.0197970  -0.2567087
  -0.0064028   0.5294345  -0.0759481   1.0360357   1.7485280  -0.1138161
   0.1642954  -0.0769956  -0.3472335   0.0152836  -0.7609340  -0.0653209
   0.1131780   0.2220077  -0.0635508   0.4041334   0.1819290   0.1696929
  -0.3576514  -0.0055956  -0.2810687   1.6610082   1.4216372   0.0816456
  -0.2881213  -0.4043779   0.0527836   0.1271450  -0.0500293   0.2658651
   0.3227346   0.9696445  -0.7310680  -0.0006347  -0.2490995  -0.1323049
  -0.5677260  -0.1000664  -1.7434480  -0.7942968   0.9975481  -0.0028653
  -0.0127183  -0.0538150  -0.1023652  -0.5299878  -1.8116164  -0.0543885
  -1.8209431  -0.0612725  -0.7927142  -0.0637075   0.0240935  -0.0199033
  -0.6625138   1.4119108   0.8778142  -0.0217879   0.5189381   0.1226939
   0.0026609   0.0627487  -0.1320930  -0.4741003   0.2209198   0.7669572
  -0.4215811  -0.7976117   0.5663340  -0.2194555   0.0992199  -0.0313539
   0.8578926  -0.6682478   0.0936864  -0.1953051   0.2851984  -0.3821806
  -0.3057052   0.1034422  -0.2687057  -0.1352092  -0.8155156   0.2493945
   0.9041713  -0.1026506   0.4902391  -0.5722981  -0.0164992   0.1311860
   0.3536599  -0.4329840   0.6951892   1.0454700  -0.4237950   1.6618401
  -0.0754447  -0.4815178   0.2093447  -1.0947291   0.4888019   1.1855040
   0.7613328   0.5464185   1.2658693  -0.4462071  -0.1716261  -0.3135558
  -0.2877903  -0.1493496   0.2622230   0.8707044   0.1878885  -0.0244585
   0.0328882   0.2551405  -0.1306268   1.8717490  -1.8228508  -0.7318155
   0.7644662   1.6968315  -0.4411992  -0.1183861  -0.2195832   0.1350679
   0.7024236  -0.8455796   0.9590848  -0.4679943   0.9349656  -0.4012432
   0.0674038   0.1368132  -0.0714578   0.5638155   0.1483983  -0.2177796
   0.3903122  -0.5153611  -0.2795703   0.1076799  -0.1779128  -0.1997588
   0.3102892   0.1511154   0.9916927  -0.8386271   1.2023004   0.0502759
  -0.0170186   0.0415196  -0.1385786  -0.8013104   0.6858380   0.7796471
   0.3792087   1.1789020   0.8774101  -0.1781208  -0.2545846  -0.0803484
  -0.6601332   1.2030097   0.0075031  -0.2885275  -0.6249104   1.3458160
  -0.1161112   0.1140390  -0.1037604  -0.4248206   0.6103577  -1.0926096
   0.0722767   0.5351414  -0.4038979  -0.4739207   0.3127612  -0.2840528
  -0.2520987   0.6428749  -0.0741731   0.4249620  -1.7670538  -0.3316521
   0.1652362  -0.1114262  -0.0367474   0.2942304  -0.5607659   1.0224799
  -0.4556294   0.4173950   0.5027751   0.1441725  -0.0550708  -0.1699408
  -0.1317980  -0.0196921  -0.7470453   0.2360938  -0.5215154  -0.0645788
  -0.0133093   0.2349631  -0.2955245   0.4790718  -1.1464337  -0.9014959
  -0.0468348  -0.0774694  -0.2867529  -0.2155114   0.0552022  -0.0683794
   1.0200487  -1.3518645   0.2236381   0.2619228   0.1136777  -0.6846579
  -0.1088005  -0.1623186   0.0336955   1.4694285  -0.4842540  -0.1092957
   1.2105865  -0.7682852   0.4000672  -0.1096086   0.0737692   0.0887353
   0.0962005  -0.6969717   0.3149043  -0.8847632   1.2069948  -0.7359034
   0.0405742   0.3506236  -0.0408136   0.9786016   0.7945302  -0.8971482
  -1.0547538  -0.5658508   1.3686997   0.1471612   0.4396012   0.0855052
   1.0264734   0.2432366  -1.0196116  -0.2609461  -0.6644788  -0.2779720
  -0.1899209  -0.1777622   0.1513383  -1.9059495  -0.7834473  -1.2699685
  -0.9397860   0.1997102   0.8926270   0.1952834  -0.2952436   0.1709666
  -0.0376792   0.9168557   0.1347752  -0.1169866  -0.1495218   1.4477925
  -0.0052114  -0.1244203  -0.1085831  -0.9820126   1.3116169   0.2944554
   0.4577236  -0.1607668  -1.7952617  -0.3761635  -0.1206242   0.2590559
   0.6547013   1.7578106  -0.3033758  -0.1630857   0.1585781   1.2100148
   0.3554283   0.0060760   0.0989138   0.8182856  -0.4873295  -0.8674937
  -0.4831573  -0.8194047  -0.2648347   0.3017828   0.0056587   0.1500449
  -0.7519957   0.9246699   0.9333228   0.5121334  -1.2040162   0.4135343
   0.1986907   0.2553584  -0.0799374   0.8367355   0.0926177  -0.9229869
   0.3960858   0.3443865  -0.7242000  -0.2240083  -0.1929810  -0.1029603
   0.6796236  -0.3176629   0.6736340   0.2947237   0.5059183   0.2975810
   0.2244693   0.0817038  -0.1029663  -0.3248861   0.4539191  -0.5070305
  -0.3701972  -0.3118429   0.8043841  -0.3271025  -0.0133841  -0.1200548
  -0.1310357  -0.3375267   0.4310171   0.7893868  -1.0574692   0.2727470
   0.3778829  -0.2875175  -0.1182119  -0.3693989   0.2831714  -0.2713740
   0.0294687   1.2014388   0.3441956  -0.0061098   0.0160372  -0.0862032
   0.1797270  -0.0544754   0.1796532  -0.7538585   1.2270660  -0.3241123
   0.2577757  -0.2527091  -0.2749079  -0.7965678  -0.5732917   0.0006981
  -1.1099848  -0.5835570  -0.9708655  -0.2374704  -0.2856508   0.0825141
  -0.7697979  -1.0942874  -0.6515948  -1.2120101   1.1729240   1.3841116
   0.1634194   0.1313441  -0.0241269   0.4738595  -0.0924918   0.9220482
  -0.0231696  -0.9845556  -0.2725621  -0.0917969   0.4500745   0.0592408
  -0.4276160   0.0594565  -0.8797243   0.5136350  -0.7608503   0.0074959
  -0.0263334   0.0671323   0.1311284   0.0828062  -0.1007336  -0.5559452
  -0.4565987   0.0483257  -0.1710199  -0.0012540  -0.0399910  -0.2439653
   0.6874365   0.2923232   1.2291909   1.6114177   0.2664116   0.8353100
   0.0104007   0.1006944   0.0614692  -0.8622494  -0.5978091  -0.7396017
  -0.0799147   0.9975119   0.9374003   0.2159326  -0.1006023   0.2678233
  -0.3868486  -0.9247527   0.2200494  -0.1657076  -0.0589050   0.7141241
   0.2012531  -0.2142995   0.1715503  -0.6807485  -1.6011834  -1.2614899
  -0.1443613  -0.3292898  -1.2623782   0.2878235   0.3559580  -0.1985614
  -0.1436716   0.7274365  -0.0052107  -0.4105102  -1.0711002  -0.0431614
  -0.0100569   0.1995765   0.0849460  -1.1108928  -0.6796705   0.5601833
  -0.7104099  -0.2598351  -0.7994099   0.2818029  -0.1482982   0.0085972
   1.1160535  -0.1130762   1.3677100   0.2241266   0.5726198  -0.2718832
   0.2444373   0.3735129   0.1364582   0.3626768   0.4537638   0.3369106
   0.8878127   0.0983728  -0.7904779  -0.0616318  -0.1098789   0.2993474
   0.5505600  -0.1801904   1.5100908   0.0563405  -1.8331933  -0.0844303
   0.0276689   0.1405041  -0.0610851  -1.6154298  -1.0532384   0.4292967
   0.0644706  -1.0724617  -0.0056955   0.1348110  -0.0594435  -0.0127517
  -0.4503476   0.0620017   0.1287619   0.2839426  -1.6611669  -0.1944346
   0.1234210  -0.0052010  -0.1383976   0.6604514  -0.4604650  -0.9229787
  -1.1049989   0.8949762  -1.3560004   0.0826721   0.1000654   0.0947854
  -0.0560588   0.8839635  -0.0350099   1.2204627   0.1751450   0.7785087
  -0.0556167  -0.0338995   0.1567679  -0.0637666   0.1056158  -0.0176664
   0.1058047   0.0207275   0.2909145  -0.0698208  -0.1022368   0.4083629
  -0.2443651  -1.3452290  -0.0832854   0.9842295   0.0301468   0.6572815
   0.1373534  -0.2897539   0.1471567  -0.8873513   0.3046797   1.4192297
  -0.0198588  -0.1642347  -0.3503733  -0.3738851  -0.0149950  -0.3527160
  -0.3885163  -1.3253993  -0.1275605  -0.0056496   0.2078221  -0.2897738
  -0.0830476  -0.0985549   0.0290964   1.1882380  -0.2605378  -0.8843567
  -0.3859671  -0.6565869  -1.9165623  -0.2554509  -0.3289440  -0.0015884
  -0.8251677   1.0482615  -0.0041206  -0.1037548  -0.2063624  -0.8421924
  -0.2073751  -0.1526641  -0.2017069   1.2531885   0.4367556   0.5849669
  -0.3894190   0.0092994  -0.2881127   0.0748399  -0.2146791  -0.0966722
   1.7553099   0.5803984  -0.1491856  -0.7147189  -0.5699764   1.0789412
   0.1404830  -0.0685448   0.1337909   0.5760043   0.4662002  -0.1365542
  -0.7287355   0.0490256  -0.7619739  -0.3301954   0.2270886   0.5427561
  -0.7951945  -1.7165420  -0.5188348   1.4977119   1.3011469  -1.2964660
   0.0100264   0.0188668  -0.0398937   0.3928422   0.1341664   1.4443438
  -0.4893648   0.1550958   1.2957058  -0.2168477   0.3520008  -0.2761131
   1.5805230  -0.2524028  -0.8605614   1.2139221  -0.6034316  -0.0000453
   0.2883509   0.1173725  -0.1830443  -0.4230173  -0.6021119  -1.0529808
   0.5402220   1.1345582   0.5906404   0.3886349  -0.2154755   0.3296766
   0.5433309   0.0107044  -1.2404997   1.4990844  -0.3314325  -1.1561602
   0.2598740   0.0185846  -0.0859466   0.0438385   0.2333445  -0.0359335
   0.6757424  -0.6714581   1.0139302  -0.1377658   0.0471984  -0.1338882
   1.6630889   0.0881776   0.8948861   0.2998806   0.1979163   0.6569091
  -0.1444284   0.1659388  -0.0736122   0.3380549  -1.1966784   0.1104607
  -0.2932600  -0.5372418  -0.5849738   0.3959748  -0.1380143  -0.2081987
  -0.4531860  -0.9793677  -0.1015488  -1.1784493  -0.0396266   0.3029428
  -0.1580066  -0.1568359  -0.0303317   0.2240413   1.6239178  -0.5657970
  -0.0248986   0.3796632  -0.5149478  -0.1378764  -0.0788221   0.1294826
   0.7347741   0.4250460   0.6241214  -0.4816707   0.9650894   1.2491810
  -0.1049354  -0.1619247  -0.1222390   0.5650811  -0.3653872   0.1875292
   0.2194587   0.2303800  -0.0570787  -0.0329701  -0.1016636   0.1390308
  -0.3323676   0.6016796   0.4287179  -1.2337425  -0.5272523   0.7947189
   0.0385585  -0.0975101   0.0031371  -0.3605877   0.2574300  -2.2639191
  -0.5167429   0.7114329  -0.7818745   0.0617734   0.4245061   0.1390917
   0.4970449  -1.3803025   1.8976874  -0.2612329   0.6540378  -0.3812200
  -0.2122225   0.1113429   0.5348442   0.2239463   1.1197921  -0.3039791
   0.0212109  -0.5692610   0.4017431  -0.0720183  -0.1240245   0.3203947
  -0.5960980  -0.0232373   1.3899393   1.1960497  -0.2118781   0.3279078
   0.0734931   0.0246439  -0.1427568  -0.0936979  -0.8043489  -0.4240045
   0.3478462  -1.5689132  -0.0380746   0.0353496  -0.0054811  -0.0133209
  -0.3882386   0.5842064  -0.4212664  -0.8942269  -0.5477278   0.8300523
   0.3442944  -0.1306040   0.0142345  -1.0026404  -0.0329538  -1.0084418
  -1.7902124   0.5120482   0.2781245   0.3077924  -0.2864748   0.2234560
   0.3875494  -1.6079930   0.9336018   0.9994071  -0.4103262   0.7443994
   0.1125851  -0.0726888   0.1908753  -0.1018773   1.3936638  -0.5419458
   0.3338553  -0.0806341   1.6691785   0.2495979  -0.0468285  -0.1764537
   0.0857667  -0.4237814   0.4064054  -0.6524165   0.7296625  -1.0638207
  -0.2841887  -0.0795431   0.0938812  -0.7977344  -0.0746962   1.5125130
   0.6675938   0.4705782  -0.5263576   0.1658295   0.0085152  -0.0641363
   1.1047543   0.1659085   1.1870909  -0.3813139  -1.6991241   0.6649383
   0.2889431  -0.3429828   0.1190340   0.5804911   0.0957480   0.4162489
   0.7614177   0.8328414  -1.4006310   0.1791201   0.1038404  -0.0855294
  -0.4543442   0.9155029  -0.7864946   1.2204674  -0.1672211   0.0939364
   0.0923257  -0.0399059   0.1843391   0.2761377   0.1859840   0.6487648
  -0.2807608   0.4100280   1.0769712  -0.0988695   0.0049978   0.2675072
  -0.2832905  -0.2995480  -0.4404734  -0.0796955  -0.0642550   1.1510919
  -0.2134637   0.1730233  -0.2900931   1.3424152   0.1740249   0.4261859
  -0.5603988  -1.1209911   0.2390257  -0.1083105   0.1086182  -0.4376260
  -0.4822461  -0.4198497   0.4415620   0.9695624   0.9405501   0.2445160
  -0.0931782   0.2279310  -0.2465218   0.8123499   0.4690821   0.3989623
   0.3119510  -0.4499990  -1.3926069   0.2359308  -0.0068835  -0.0425010
   0.8967081   0.2976440   0.4128688  -1.5050372  -0.0362760  -0.5911307
   0.2397057   0.0361439  -0.2118180  -1.4327939  -0.2378979  -0.7962385
   0.8043883   0.4186434   0.4301884   0.2119120  -0.5122463   0.0055193
  -3.0826774  -1.2067870  -0.6503530  -0.2266148  -1.0927498  -0.5084996
   0.0233084   0.4330820  -0.1556237  -0.3900569   0.4532960  -0.4706201
  -0.2644509   0.8090220   0.2722069  -0.0827190   0.0877296  -0.1741788
  -0.7348413  -0.8858203   0.8679544  -0.1597302  -0.4085491   0.0923524
  -0.2029068  -0.0554062   0.2605512  -1.1275697  -0.2400076  -0.2725038
   0.9790389   1.0210962   1.1440319  -0.1576999  -0.1160878   0.2560980
   0.0771513  -0.6149983   1.5010371   1.0912637  -0.6250860  -1.6020224
  -0.2225165  -0.1758352  -0.0354127   0.4385109   0.4526842  -1.7153387
  -0.0832780   0.2742724  -0.5360875  -0.4598172   0.2857377  -0.2245061
  -0.4103054  -0.6260588  -0.1669828   0.2334660   0.0836683  -0.5167869
  -0.2333919   0.0282485   0.0278377   0.1855758   0.2931365  -0.0801384
  -0.2609237  -1.3027508   0.2391030  -0.1154820   0.1143344   0.0140943
  -0.1988152  -0.3346205  -2.0529444  -1.4314705   1.1032530   0.3043371
  -0.0950701  -0.0539295  -0.1528551  -0.5079679   0.1880942  -0.9423050
  -1.0413319   2.1242583  -1.6809002   0.0714239  -0.0791360  -0.2371888
   0.5429812  -0.4787182  -0.7908049   0.0095828  -0.2385252  -0.0081483
   0.0012004  -0.3814622  -0.0702000  -0.7201055   0.5520927   0.0985142
   0.2530735   0.3262161  -0.1836234   0.0259193  -0.0113191  -0.0425529
   0.4956808   0.1360059  -0.3350482   0.1044515   1.1961112   1.4890577
  -0.1014367   0.2327714   0.1624456   0.7716430  -1.7033234  -0.0474591
  -0.6587013   0.5549549   1.5199949  -0.2369494  -0.1473355   0.5087461
   1.3310909  -1.8128361   0.5996075  -0.6690413   0.1837495  -0.9670696
  -0.0524576  -0.1137706   0.0447917  -0.7316385  -0.0107397  -0.0485871
   0.0262683   0.3370717   0.3784752  -0.0147443  -0.0315698  -0.0063762
   1.2505087  -0.4859034  -0.3871195   0.8454550   0.1341497  -0.5953162
   0.0619569   0.1016120  -0.0613313   0.3985212  -0.8749039   0.2873120
   0.8782149   1.2468396  -0.2078427   0.2130891  -0.2268534   0.1658865
  -0.5176861   0.1622282  -0.5643891   0.6293229   1.2857777   0.7259130
   0.1218435  -0.2801866   0.0080624  -1.5144989  -0.2414683  -0.5012981
   0.3074518  -0.2547398  -0.1381637   0.1828614  -0.0005110   0.1754441
   1.1075480   1.4224340  -0.3951820  -1.1213377  -0.2975577   0.5436653
  -0.0751646   0.2866074   0.2811145   0.3737550  -0.3826962  -0.8277721
   0.4811047  -0.1041058  -0.7238807   0.3091062   0.0163590  -0.2545264
  -0.8429307   0.2385023  -0.4254816  -1.0072217  -0.0450399   0.0349205
   0.1063640  -0.3992853  -0.1272201   0.3214676   0.2821040  -0.1168466
  -0.0697446   1.1912875  -0.8050916  -0.2361820   0.0010902  -0.1855734
  -0.8114520  -1.7416688   1.0333960  -0.6741444  -0.4401977  -0.5602249
  -0.0844494  -0.2679409  -0.2088137  -0.5261381  -0.4872887  -0.3884124
  -0.3756051  -0.8182279   0.4853186  -0.3087350  -0.0544513  -0.1400215
  -1.2726638   0.2103114  -0.1411447   0.3104599   0.2184394   0.3377051
   0.0453624  -0.0738159   0.1113547  -0.3353430   0.9412073  -1.3668649
   0.0285380   1.5888494   0.2952575  -0.0659840  -0.2138892  -0.0936715
  -1.0097158   0.6488342   0.4236195  -0.7191709  -0.3055141  -0.5036784
  -0.0438333  -0.2203779  -0.1609351   0.5257787  -0.5751371  -1.1193638
  -0.8372843   0.0373164   1.8191247  -0.1690581  -0.1507099   0.0852768
   0.5360245   0.1011164  -0.5251916   0.2024741   0.6556036   1.5922779
  -0.0013443  -0.2876277  -0.0122451   1.1226231  -0.3269176  -2.4374132
  -0.4878359   0.9247171  -0.3145698   0.1210260   0.1319644  -0.1769178
   1.5940896   0.9722623   0.8921816   0.8235962  -0.0049080   0.2386275
   0.1253830  -0.1222578  -0.2129093  -0.6595981   0.8440937   0.4149012
  -0.5339403   0.6953644  -0.8985839   0.2364787  -0.3830569  -0.1322108
   0.5174286  -0.4477968   0.7769659  -0.1713884   0.3241841  -0.2083036
  -0.1157399   0.0524508   0.1742761   0.0881817   0.1769549  -0.2481698
  -1.6753907   0.0980813  -0.1987138  -0.0701672  -0.1433568  -0.0366933
   0.8891792   0.2685708  -0.1165714   0.5696955  -0.3313907   0.7283430
   0.0079701   0.1394389  -0.2392598  -0.7881890  -1.3405738  -0.4445776
  -0.8832700   2.1523640   0.5114337   0.0661340   0.3156781   0.0897696
  -0.9998615   0.4077502   0.3612508  -1.1458527   0.8272998  -0.2949748
  -0.1703821   0.0249816  -0.0205848  -0.5616391   0.2357163   0.0045823
  -2.3349674   0.8777572   0.7026387  -0.0619118  -0.0135198   0.0598837
   0.5481191   1.3181379  -0.3692287   0.8445387   0.1829941  -0.0952579
  -0.2418244  -0.1637908   0.2099842   0.1482438  -1.0056778  -1.4824873
   0.2052969  -0.2679824   0.7514586   0.1077687   0.0461569  -0.0626701
  -1.5228870  -0.4032713  -1.3435683  -0.2113572  -1.1596802  -1.1905448
   0.3867463   0.0471324  -0.0256048   0.8858045  -0.5658801   1.3980258
  -0.3934747  -0.6152463   1.2394155  -0.1980341  -0.0691253   0.0981650
  -0.1464062  -0.2628859  -1.0055404  -0.4093225  -0.2691297  -0.6308747
  -0.3462256  -0.0769194   0.0482768  -0.0998107   0.3045954  -1.1132163
  -1.6749642  -0.4247352  -0.2972437  -0.0746204  -0.1513593   0.0427456
   0.6988942  -1.0346994   1.3303450   1.2941086  -0.8772408  -1.0335448
   0.0399068   0.0801536   0.0016798   0.6880526  -0.5836555  -1.7491804
  -0.0305824   1.3245513  -0.3968225  -0.1686107  -0.3179143   0.0393053
   0.7827623   0.7088957   0.8310972  -0.2621688  -0.5816165  -0.1863623
   0.5120270   0.1112214   0.2259945   0.7749953  -0.8104541   1.3394367
   0.4332681   0.3579915   1.4533956  -0.0051590   0.0156070   0.0802718
   0.7994231  -0.4853148   0.5065552  -0.0223542   0.7545310  -0.1510005
  -0.0134242   0.3173796  -0.1802030   0.1883433  -0.1150906  -0.3590246
  -0.0077344   1.7677524   0.9681674  -0.2333482   0.0504056   0.1576628
  -0.4036574   0.3609588  -0.5931680  -0.0533273  -0.4792565   0.5067762
  -0.0634189  -0.1044017   0.0736072   0.4950498   0.9470246   1.2679139
   0.1133747  -1.1557518   0.5575826   0.2355033   0.1931869   0.0476836
   0.5113666   0.7346814   0.7701514  -0.5372425  -0.5960511  -0.6808615
   0.2161149   0.0036342  -0.1045752  -0.2724391   1.2910607  -0.4318706
   1.2943505   1.1773978   0.2848542  -0.1025399  -0.1565030  -0.0957227
   1.1239630  -1.1645792  -1.8179640   1.0400051  -0.3444450   0.8449940
  -0.3448646   0.1031562   0.2851277   0.1886134   0.4093323   0.1138710
  -1.1013933   0.8931408   0.1569913  -0.1249828  -0.1486178   0.1709278
   0.4543467  -2.2837973   1.2591274  -0.5958789   0.5603707   0.7185714
  -0.0101026   0.1156190   0.2389221  -0.0405515  -0.8485366   0.5763135
   1.0875838   1.5935906   0.9641194  -0.0419535   0.1241019  -0.1563813
   0.0107145   0.6550680  -2.0046785   0.8101754   0.9869998  -0.1073521
  -0.2136967  -0.2860867   0.3836081   0.3676993   0.2558143  -0.7272305
  -0.4979360   0.5492477  -0.9641457   0.0711093   0.1278576   0.0602414
  -0.3807401  -0.1725913  -1.6544555   0.5732343   0.1338200   1.9030260
  -0.1009910  -0.0350096   0.0134886  -0.9924747   0.2096191  -1.0250117
   0.6141725  -1.1061982  -2.2602122   0.1525447  -0.0973182  -0.1714229
  -0.6216922   0.5129063   1.1278956  -0.4610171   1.0841575  -0.1031107
  -0.0115738   0.3864499  -0.2578661   0.7243665   0.4444692  -1.3200780
  -0.2680044  -0.1311730  -0.3132872  -0.2506903  -0.0788075   0.2231020
   1.5012591   0.0239443   0.0652808  -0.4869269   0.9996031  -0.2635325
  -0.0833833  -0.4779500  -0.0793151  -0.6536337  -0.7224792  -0.2551371
  -0.1386191  -1.0200273   0.5121024   0.1728271   0.2787252   0.0912517
  -0.8512141  -0.5983737  -0.3530292  -0.0585170   0.5802182  -0.7274730
   0.0741039   0.0779370  -0.0640902  -1.1103117  -2.1186473  -0.2202664
   0.3742182   0.6399371  -0.1391579   0.0300108  -0.1425979  -0.3862125
  -0.1057355  -0.1202955  -0.5502359  -0.0173621   0.2803958   1.4697065
  -0.0555927   0.0208088  -0.3202551   0.2599568  -1.9629081   0.5971577
   1.0536107  -0.3620823  -1.0996608  -0.2198669   0.1175236   0.0663261
   0.9589319  -0.8815184  -0.4158778   0.8869139  -1.6453615   0.3306108
  -0.2475150   0.0016846  -0.0796430   0.0653561   1.5163878  -0.8161296
  -0.2947858   0.8708426  -0.4530951   0.1009124  -0.1068147   0.4356625
   0.1636162  -1.0251790   1.0175401   1.4734870  -1.2810789   0.4587806
   0.2095394  -0.0640883  -0.1241649  -0.3255429   0.3704814   0.9705538
  -0.8179064  -0.0749719   0.7708214  -0.0032181  -0.0601311  -0.0762595
  -0.8709465  -0.0492821  -0.2932791   0.1743848   0.1183718   0.1757151
   0.0554466   0.0109632   0.3746776  -0.8617564  -0.2129411   2.4044454
  -0.4556446   0.9607219  -0.6095360   0.3596362  -0.1195148  -0.2116643
   1.7638302  -0.2776519   0.4027581  -0.6205180   0.6033456  -0.7621160
   0.0401885  -0.1381929   0.0845545  -0.7533395  -0.0959320   0.0610297
   0.9049100  -1.3753809  -1.6620559   0.1148285  -0.0058059   0.1589078
  -0.6081082  -0.3002805   0.2251724   1.5020125  -2.5965974  -0.7753263
   0.1029243  -0.3714318   0.0223545   0.1873002   0.2270157   0.5032206
  -0.4271768  -0.3575062   0.4837169  -0.2142487   0.1914005  -0.0272775
   0.5225400   0.0480465   1.5124365   1.3923562   1.9349207  -1.2177192
  -0.0105833  -0.2990579  -0.0294450   0.3675047   0.3594579   0.9230494
   0.2884827   0.6393614   0.3403484   0.1335710  -0.1112773  -0.2063260
   1.2445784   0.1547874  -0.1917320  -1.0097948  -1.4955466   0.1910065
   0.0742569   0.1102715   0.1755999  -0.1299795  -0.3975261  -0.3924725
  -0.0264021  -1.2843622   1.0924069  -0.1780662  -0.4772553   0.0028110
   0.1849081   0.2958611   0.0158034  -1.8154923  -0.5256590   1.4730252
  -0.2364344  -0.2805895   0.2150209  -0.4770700   0.1841908  -0.8016121
   0.5472979  -0.1324373   0.0047069   0.1751630  -0.1326217   0.0549380
   1.2000844  -1.3115505   0.0752017  -0.3832038   0.6966844  -0.0216319
   0.0255496  -0.4059621   0.1932040  -0.8497329   1.1034849   0.2193851
   0.2880656  -0.4800430   0.6101173  -0.0796851   0.1188042   0.1879220
   0.9467662  -0.4935888   0.1424501   0.3274522  -0.1201985  -0.3040570
   0.1216254   0.1471360   0.0124130   1.5151465  -0.7635061   0.7432771
   0.8328442   0.8577668  -0.4938314  -0.4465586   0.3062079  -0.2495228
  -0.0424084   1.0010438   0.7896068  -0.5490262  -0.2676018  -0.8995840
  -0.5011193  -0.0119840   0.0636311   0.4562643  -0.7488934   0.6485074
  -0.6331107   0.8443906   0.2786234  -0.1701736   0.0913198  -0.2853596
   1.2531729  -0.3691165   0.6889484  -1.0367815  -0.0663862  -0.6252058
   0.1172715  -0.2249517   0.0569209   1.4231963   0.4321917  -0.0626512
  -0.8859205   0.3584313  -0.1340413   0.4424308   0.0105021   0.3180828
  -0.8361319   1.3510008  -0.2915147  -1.8893690  -1.3850404   0.8540501
  -0.0079570  -0.0512372  -0.4783264  -1.7147865  -1.0598526   0.0989540
  -1.4496907  -0.1886120  -1.4710919   0.1128354   0.1035027   0.2923789
   0.4853928  -0.7947261  -0.1300431   1.3488810  -1.3397992  -2.4902110
   0.1309629  -0.0597518   0.0052932  -0.3520835   0.6364450   0.5947319
   0.3502175   0.3161995   1.2935203  -0.3591151  -0.0379716  -0.1738892
  -0.0161755  -0.2622904  -0.6822697  -1.0322131   0.9430424   0.4530554
   0.0124076  -0.0395667   0.1873444   0.0161208   0.3750391  -0.9047017
   0.3296680  -0.4626425  -0.1296308   0.0020317  -0.2424099  -0.0355604
  -1.5472673   1.6025562   0.6617541   0.3483232   0.3341543   0.5109981
  -0.3995373   0.0444690   0.3114546  -0.4876843  -0.3366523  -0.5769442
   0.2795109   0.2822557  -0.4964521  -0.0942743  -0.0594298   0.1091585
   1.6434913  -0.8871104  -0.0736566  -0.8654823  -1.0061717   0.7047598
  -0.0315707   0.0349413   0.1931830   0.3502583  -0.0361847  -0.0951951
   0.7535917  -0.6284434   0.6658035  -0.1274521  -0.1452423  -0.1021153
  -0.5486577  -1.1260928   1.0332443   0.1969300   0.0264856   0.3679364
   0.1550366  -0.0905429  -0.2255145  -0.1094384  -0.1071235   0.7422739
  -0.9657482   0.7762043   1.1357747   0.3123034   0.3643459   0.1928581
  -0.1376521   1.4410211   0.3001286   1.1623299   0.6224071   0.0246959
  -0.2923876   0.2155235  -0.0403213  -0.3119043   0.7169319  -1.4008638
   1.5032934  -1.5916514   0.2828606  -0.1707918   0.0733161  -0.4245262
  -0.6570247   0.6076349   0.1822613   0.3559674  -0.1411425  -0.1338118
   0.0559899  -0.0511767   0.2408902   0.3486129  -1.6201111   0.2268613
   0.8938885  -0.0453159   0.2201975   0.2058609  -0.1578382   0.1914201
  -0.7347379   1.4232053  -0.6100608  -0.8701921  -0.1432488  -0.8585923
  -0.3601762   0.2180118   0.2508589   0.5922999  -0.7844027   0.2935020
   1.0311221  -0.6899298  -1.7497308   0.1096659  -0.1473343   0.0444451
   0.7576887  -0.0884399   0.5657213   0.3225740   1.8007399  -1.1314212
   0.2398690   0.0590892  -0.1257450  -1.3494542  -0.1143465  -1.1197644
  -0.0840533  -1.1325600   1.1025027  -0.0453904  -0.1895539   0.0167097
   0.1493739   0.1215992  -1.4510770   0.2329644   0.8840057   0.6605977
   0.0384253  -0.1821601  -0.0386338  -0.3729366   0.6726967   0.4413534
  -0.8247651  -0.0956005  -0.0237585   0.2589415   0.1165266  -0.0937583
  -1.1471545  -0.6996773  -0.0624378  -0.2917961   0.7834763   0.4648197
   0.2410896  -0.0262799  -0.2106919   0.0615615   0.4596201  -0.0645880
   1.3297628   0.8521939   1.2360620  -0.0961060  -0.0873855  -0.0635770
   0.4656745   0.5912764   0.6802157   0.2470941   0.7353634   0.5498425
  -0.0289056   0.2731113  -0.1539997   0.0293309  -0.3555860   1.1274984
  -0.9271631   0.6973031  -0.5914682  -0.0931339   0.2101290  -0.0354738
   0.2100096  -1.1405934  -0.3460569  -0.5463501  -0.1759735   0.3671471
  -0.2094771   0.0830818   0.0418158   0.4573602   0.1009641  -0.0341376
  -1.3854824  -0.5129327   0.2396967   0.1394264   0.1530616  -0.2040933
   0.8653437  -0.8293135  -0.2212468   1.1942927  -0.2529916   0.2242365
   0.1422764   0.3687860   0.2532460  -0.4300137   0.0824337  -0.4336010
   0.1220121   1.1981925  -0.3303397   0.2064105   0.2822025  -0.0649786
  -0.3500174   0.1917986   0.3521772   0.5588777  -0.2276495  -0.5936562
  -0.1319020   0.3374624   0.0843685   0.4268253   1.0113329   0.1410160
   0.4324414   0.8707957   0.5756454  -0.0247474   0.0804643   0.3517908
   0.6053092   0.9651747   1.2646275   1.1758775   1.2808949   0.8084404
  -0.0577430   0.0653603   0.0071506  -0.0200853  -1.4154884   0.1830984
  -0.7568969   1.0302815  -0.9814836  -0.0407530   0.2457934   0.0204120
   0.6895030  -0.8400149  -0.3082176   0.0176214  -1.1779011   1.5006105
   0.2735920  -0.1457622  -0.0549040  -1.4188457  -0.5139654   1.1994015
  -0.7837009   0.6667656   0.3260848  -0.0779013  -0.1978600   0.1999141
   0.3749423  -0.2232951  -0.7174330   1.5088499   0.6284614   0.0498168
  -0.1820169  -0.0550957  -0.1176725   0.2967127   0.3182733  -0.2160355
   0.0947861  -0.9177858  -0.2318314   0.0247925  -0.1089753   0.0958117
   0.8660082  -0.4712843   0.4158214  -0.4334199  -1.3928310   0.3134578
  -0.0958052   0.1456979  -0.2101869   0.4577753  -0.6419885  -0.6551038
   0.4438040  -0.0020685  -0.5147377   0.1211033  -0.1159412   0.1643905
  -0.1381685   0.7013581  -0.1417787   0.5619063   0.8109797  -0.2130994
   0.0826641   0.0528643   0.0171068  -2.7177045   0.0925910   0.2021697
  -0.3531846  -0.2266999   0.5618789  -0.0600525   0.2065612   0.1360980
   0.9529092   0.0390086  -0.7963652   0.0760655  -1.0306629  -0.5151477
  -0.0696564   0.0008399  -0.1227840  -0.3885772  -0.2156180  -0.5883594
  -0.3173199   0.4400697  -0.2509710   0.0810040   0.0655599  -0.0167878
  -1.0788867  -1.0659611   0.5375055   0.4516543  -1.2333049  -1.0107797
  -0.0277702  -0.0638347   0.0864162   0.1072681  -0.0289022   0.4902477
  -0.4636424  -2.1810856   0.3527883   0.1054215   0.1769952   0.2556418
   0.3539596   0.7092707   0.6298314  -0.1642425  -1.3774219   0.0387633
  -0.0260273  -0.1369617   0.3404022  -1.2377877  -0.2406407   0.9567103
  -1.4026356  -0.3401665  -0.5756169  -0.0206255   0.1045835  -0.2493660
   1.0406164  -0.0165572  -1.9932085   0.0911060  -0.1706438   0.1868993
   0.3630784   0.0202592   0.0306455  -0.3974909  -1.0389173   1.8209553
   0.2352292   1.4037677  -0.9652821   0.0582751  -0.1016278  -0.0816485
   0.3019512  -1.3057809   0.8986618  -0.0313584   0.5962884  -0.7610968
  -0.3774711   0.1308135   0.2632697   0.7782093  -0.9841772   0.1273641
  -0.0396833   0.2318334  -1.0195616  -0.2673840   0.2438635  -0.2147346
  -0.2959648  -0.6553669   0.0630439  -0.4541420  -1.7227989   0.3362230
   0.0591534   0.1697193   0.0952914   0.1206194   0.5373090   0.4648758
  -0.6029428   0.3862266   0.3324597  -0.1848079   0.0423874   0.1420157
  -0.4568765   1.1199410   1.0058519   0.2898871  -0.5708016  -0.5925710
  -0.3224542   0.0131417  -0.0085498  -1.2264713   0.2563025   1.0742223
   0.3395065  -1.3921467  -0.9015001  -0.1156424   0.0464093  -0.3031003
   0.4223396  -0.3588590  -1.8073410  -0.0876155   1.5973748   0.6502178
  -0.1469631   0.1040892   0.0244815   1.1423635  -0.5306488  -0.3363131
  -0.8666729   0.1804385  -0.3778597   0.0257385   0.1981308  -0.0385735
  -0.0794469  -1.1213036  -0.0418355   0.5846820  -0.2807745  -0.1150667
  -0.3070343   0.0375610  -0.1348767   1.1431091   0.2396878   1.4397160
  -0.5286776  -0.6400244  -0.1296089  -0.1979833  -0.0519341  -0.2878091
   0.4777426  -0.3226040  -0.9465722  -0.7186114   1.1950589  -0.2744161
  -0.1259264  -0.0335101   0.3602895   0.8290166  -1.6590075   0.6825962
  -0.3967023  -0.2189030   0.2320867   0.1267788   0.1258162  -0.1852494
   1.3469547  -1.2981316   0.5502937   1.4990053   0.2921672   0.5567718
   0.1655988   0.2389365   0.0872157   0.3569659   0.2413288  -0.1251980
   0.6175866   0.3382122   0.3618168  -0.1978918  -0.0082050   0.1330779
   0.6659213   1.2369663   0.8531383   1.0400884  -0.0230416  -0.1542193
   0.0717239   0.1465765   0.0321752   0.5879635  -0.9253037  -1.0290606
   0.6053898  -0.1414388  -0.7781823   0.1124813   0.1033034  -0.0687405
  -1.2280014   0.2750104   0.1895016  -0.3830892  -1.1747146   1.3435709
   0.2470612  -0.1233027   0.0350363   0.9565557  -0.0629431   0.9072503
  -1.1237786  -0.3429033   0.9062204  -0.0270850  -0.0140315  -0.1068838
   0.3385910   1.3424431  -0.1928057   0.5146267  -1.1455218   0.8826801
   0.1233448  -0.1452266   0.1466672   0.5699670   1.6939508   0.3569233
   0.3799013  -1.1621548   0.4367136  -0.0894726  -0.0348258   0.3102461
   0.6640701   0.9143918   0.3424560  -0.3600267  -0.6199504  -0.4834335
   0.0809127  -0.3020366  -0.0128652   1.7073392   0.0389431  -0.3489327
  -1.2811412   1.3423268   1.3253947   0.0725753   0.0830379   0.1505640
   0.2047682  -0.7238035  -0.5510563  -1.1843022  -0.5589295  -0.7514827
  -0.0626362   0.0978365  -0.3087983   1.7015231  -0.1830510  -0.2163599
  -0.5544596   0.6046259  -0.2159152  -0.2588117   0.3724857   0.4206959
  -0.2008331   0.5997186  -0.1759393  -0.0642754   0.3173796  -0.7594659
  -0.2418395  -0.2141079  -0.0443340  -0.4730461  -1.7090307   0.9919680
  -0.8383731  -0.0254546   0.9760408  -0.5070745  -0.1941516   0.5111333
   0.4189096  -1.3614355  -0.6800200   0.9431254  -0.0021979  -0.7565783
   0.1805380  -0.0914689   0.0095346   0.1528764  -0.7252441   0.1430299
  -0.9245803   0.5865802   0.5739022  -0.4054251   0.0959494  -0.1913193
  -0.7779758  -1.4143690   0.5624251  -0.0753596   1.3127662   1.0136409
   0.1608406   0.0012591   0.3760854  -0.2749574  -0.8451245   0.0163080
  -0.6120919   0.4072872   1.2465882  -0.1112245  -0.0082559  -0.2197194
   0.6328611  -2.2193084  -0.4750188   0.0565823   0.3876097  -0.4380320
  -0.0700713  -0.0518563  -0.1779888   0.3111634   1.0647734   0.4717037
   0.0205619   0.4464284   0.2959073   0.0036373  -0.1811336   0.2775704
   0.6606292   1.4258856  -0.1194212  -1.6090637  -0.3703420   0.3328902
  -0.1463718   0.0067615  -0.1487966  -0.6005250   0.9047040   0.1843921
   1.3508128  -0.2161371  -0.3306100   0.0149657  -0.2655391   0.2678453
   0.4480635   0.6921142  -1.4477845  -1.6170099  -0.4015510   0.9626781
  -0.2087960   0.0850675   0.1800928  -0.0856322   0.3851373  -1.1404265
  -2.2977681   1.9848634  -0.3515890  -0.1943510   0.3911936  -0.4121639
   0.2401901   0.6919993  -0.1755353  -0.1235044  -1.9145457   0.9095853
   0.0643970  -0.2955897  -0.3355624  -0.7434921  -0.8472818   1.3627149
  -0.0751197   0.1544891  -0.0028045   0.1008431  -0.0824317  -0.0704428
  -0.2066378   2.6735661   0.6999506  -0.7435562   0.3604307   1.4601673
  -0.3360330  -0.1644059  -0.5075560   0.4432512   0.0449201  -0.1017321
  -0.1679191   0.2480284  -0.3901897  -0.3323970  -0.0663503   0.0429743
  -0.6847951   0.1461014  -0.0902648  -0.6346617  -0.4494765  -0.3167894
   0.2225960  -0.3492217  -0.3288040   1.7847219  -0.8149512  -0.0492948
  -1.2514553  -0.7069849   0.7609804  -0.0732765   0.0225719  -0.3019548
  -0.3128837  -0.0583677   0.6635188  -0.3615905  -0.1070755  -0.5241168
   0.0082725   0.2800837   0.0534853   0.5345474  -0.7899067  -0.4261327
   0.0429259  -0.5156196  -0.1978319   0.2367117  -0.1508934   0.2106703
  -1.2588081  -1.6283252  -0.8231882   0.9285992   0.0157806   0.5941151
   0.2541881   0.0883452   0.0044166  -1.1632731   0.9799500   0.5049449
   0.0151636   1.1148998   0.7059886   0.0309627  -0.1311326   0.0858581
  -1.4075618   0.8603673  -1.6924390   0.8520703  -1.4596572  -1.2000285
  -0.1838934   0.0406721   0.0744328  -0.8291896  -0.6684393   0.1660549
  -1.2909827  -1.1018242   1.3812523  -0.0566340   0.1185925  -0.1163827
  -1.1595454  -0.8088706  -1.1973058   0.9848742   1.0702661  -0.8019254
  -0.0684366  -0.1442291   0.3283943  -0.3414743   0.4998743  -1.8686410
   1.3805314   0.1820806   0.9431003  -0.1230389  -0.2839528  -0.3763528
  -0.0732164  -0.1151890   0.0206201   0.0684646   0.4764153   1.3138553
   0.1086999  -0.3890011   0.0331440   0.3458366   0.0053530  -1.4728204
   0.4392211   0.6615350  -0.0737747   0.1179819   0.1463407   0.0855192
   1.0290402   0.4027430  -0.4112503  -0.8839447  -0.5512186   0.5869815
   0.2898827   0.0022522  -0.1807731  -0.5995355   0.1528410  -0.6736960
   0.6354285  -0.3810716  -0.2228017   0.0131224   0.0963762  -0.2366326
  -1.1519489  -0.0687745   1.2026509  -0.4199373  -1.5495929  -0.7776708
   0.4277736  -0.1300764  -0.1237015   0.4374937  -0.8870752   1.4731773
   0.8879252   0.2391317  -0.2879788   0.1916382   0.0749014   0.4420347
  -0.0081710   1.4904042   0.7777317  -0.3163716   0.0920335   0.2984730
  -0.3168499   0.1450181   0.0507919   0.5145921   1.0458958   1.3379951
   0.6550951   0.9516835   0.8561700   0.0655021   0.3958488   0.3719064
  -0.9036524  -0.3339758  -0.5415651   1.7600703  -0.0502041  -0.1063740
  -0.0403943  -0.1143858  -0.0062551  -0.8188103   0.2144276  -0.8241817
  -0.1855234  -0.0105096   0.0714648  -0.0702868  -0.2973045  -0.2655186
  -0.8580469  -0.0094217   0.0001343   0.5534644   0.2926793   0.0548470
  -0.3687313   0.0100263  -0.0393048  -1.0703840   1.0694835  -0.8643929
   0.7400917  -0.1823118   1.2845597  -0.0444018  -0.1474616   0.0430260
   0.5118741  -1.1326998   0.9198238   1.5604107   0.0952608  -0.4674150
  -0.4260700  -0.4545099  -0.0504294   0.3890890   1.7124066   0.8696476
  -0.4305562  -0.7842646   0.7467861  -0.1339971   0.0153189  -0.0585298
  -1.4796160  -0.4319332  -0.2130000   0.3063218  -0.2183032  -0.2318362
   0.2197827   0.0102770   0.0408015   0.0202543   2.1570346  -0.4900919
   1.4865875   0.5494128   0.9688703  -0.2062828  -0.2447034  -0.2233742
   0.7911538   0.7725883  -0.6645755  -0.0336419   0.0636292  -0.7156401
  -0.0946741   0.2047796   0.2263109   0.1863659  -0.5063168  -0.4878597
   1.2201061  -0.5092449   0.9337701   0.1856043  -0.2865438  -0.1697401
  -0.7626771   1.3539629   1.8938003  -0.4532175   0.9960811  -0.9375759
  -0.1754915  -0.1575077   0.4392278   0.0335669   0.2166802  -0.5733654
   0.5672149   0.9353372   1.1730832   0.0786696   0.0348241  -0.1072485
  -0.2465298   0.9610124   0.2972431  -1.6539139   0.6324704   0.8193391
  -0.0271711  -0.0592027  -0.0396123  -0.5413304   0.3684216  -0.2288003
   0.4936064   1.2863215   0.0912525   0.0746702   0.2334880   0.2001207
   0.2650396  -0.9226065   0.2542577  -0.7344058  -0.2064501  -1.0286334
  -0.2753826  -0.3761105  -0.5755922   0.8835973   0.7318971  -0.9603201
   0.8026818  -0.8935994  -1.3320163  -0.1083954   0.0624790  -0.1238551
  -0.6187686  -0.3930222   0.8153290  -0.4256435  -0.7661903  -0.9145226
  -0.1808162   0.2930503  -0.0670768   0.5344467   1.3893720  -1.4485080
  -1.1555439   1.8740070   0.7030147  -0.1649974   0.0975609  -0.3364477
   0.7037768  -0.1829101   0.5957521  -1.1644025  -0.8231350  -0.4472708
   0.2548730   0.1134342   0.0310719  -0.6638219  -1.1315452   0.2392358
  -0.0167829   0.3346748  -0.6270660   0.0371689  -0.1624461   0.3116581
  -0.3367985   0.0813559   0.0610616  -0.0180737  -0.8519125  -0.8834270
  -0.2330713  -0.1075060   0.2362097  -0.7311659  -1.8530456  -0.4243068
   0.6533793  -0.5364171   0.6813495  -0.0639998   0.0842234   0.2032627
   0.5237604  -0.5780746   0.7976704  -0.8009740   0.8949033   0.1437953
  -0.1986138  -0.3371606   0.3252309   0.3208880   0.8375885   0.0780218
   0.4546242   0.3449046   1.9222550  -0.0299838   0.2968142   0.1107255
   0.0570564   1.3823768  -0.6679271  -0.2868440   0.6836339  -0.9738241
  -0.0871119  -0.0579848  -0.2023845  -0.5275865   0.6300643   1.8605942
  -0.3415097  -0.6659392   0.1602403  -0.1081131   0.1187543   0.2502899
  -0.2238418   0.1031763  -0.4801637  -0.3619728   1.9307162  -0.4620200
   0.0927929   0.0636714  -0.1127494  -0.9382012  -0.1874763   0.8534634
  -1.4914600  -0.1115714   0.4529447  -0.0929097   0.1010505  -0.0594969
  -1.2841480   0.1604377   0.6355014   0.6621762   0.1397898   0.3783324
  -0.3932555   0.1747929  -0.2215603   0.1349775   0.2513924  -0.1526328
  -0.0549343  -0.2391952  -1.6474400   0.0476510   0.2286031   0.1135618
   0.2510513  -1.7190253   0.6625143  -1.3449333   1.2363616  -0.6273209
  -0.1378235   0.3874709  -0.2624891   2.0205042  -1.2078017   0.1972660
   0.3831908  -0.7805694   0.3993292   0.0138329  -0.0380402   0.1882206
  -0.5745865   0.3621131  -0.8683242  -0.2464569  -0.4301697   0.7511621
   0.2661406   0.2682708  -0.2692851   0.9381967  -0.2952537  -0.2810089
   0.8134029   0.9507650  -0.0557230  -0.2134017  -0.1481223  -0.2004914
   1.2334696   0.0654725  -0.2994102  -0.2451609  -0.5733714  -0.1166027
   0.0488088  -0.0718042   0.0711385  -0.6351337   0.4013618   0.0820161
   0.4742973   0.2616784   0.7002267  -0.1749514  -0.0472442   0.0659950
  -0.7861401  -2.5012066   1.4104156  -0.5998828   0.2840675   0.9628676
  -0.1754600   0.1147235  -0.0792405   0.6294703  -0.4811690  -0.8002955
  -0.0734064  -0.6182191   0.4124928  -0.2833167   0.3927467   0.0806045
   0.5006152   0.1295645  -0.8225992   1.0502028   1.8419746   0.1644130
   0.0661084  -0.2855738  -0.2381513  -0.6884620   2.4945385   0.2321466
  -0.0263043  -0.1921396  -0.4814064  -0.4058917   0.0074278   0.1463354
   0.0836978   0.6294142   1.2888883  -0.6947962   1.0804174   0.2515959
  -0.0674715  -0.1707384  -0.0406408   0.1473513   0.5643868  -1.0894761
  -0.6761746  -1.1643990   0.2939987   0.1498471   0.0707676  -0.1820112
   0.7349380   0.3543200  -0.0651816  -0.9645995   0.6704385   1.1446224
   0.1325616   0.2411716   0.0247324   0.1636629  -0.1008693  -0.4819167
   0.9332051   1.5921025  -1.2018489   0.0238389   0.0285616   0.1149684
   0.1230378  -0.9326409  -0.1601674   0.9970011   0.5845059   0.3450084
   0.2938379  -0.1614693  -0.0149408   2.0765107  -0.1090290  -0.6087873
  -1.5070658   0.0834110  -0.3782028   0.0892382  -0.1450724  -0.1511601
  -0.3148542   0.4469375   1.0282868  -0.3496838   0.6922499  -2.4152412
   0.0060464  -0.3095569  -0.1672923   0.9783467  -0.2394592  -0.1637836
  -0.7824805  -1.0403283  -0.0346982   0.1157167  -0.0755828  -0.1760617
  -0.1919805   0.4506468  -0.1780344   1.5606995  -0.4392121   0.0202201
   0.3956838  -0.0547143   0.2550431  -0.7475547  -1.1976469  -0.3144340
   3.0052824  -0.0466264   0.2775838   0.0086032  -0.3084542   0.0572838
   0.5928844   0.6972262  -0.3209484  -0.3908851  -0.0480635  -0.0569369
  -0.2958023  -0.2187672  -0.0272891   0.3710746   0.0573806  -1.0734564
   0.0301707   0.0032025  -0.1129494  -0.1934018  -0.1302563   0.0283203
  -0.1607775   1.1677052   0.9500621   0.7120267   0.2726088  -0.5719443
   0.2004045  -0.1892681   0.2113587  -1.2998019   1.5278556   0.4287164
   0.9181868  -0.7036830   0.2995899  -0.1251122  -0.1385759  -0.1847615
   0.7972134   0.4666221   0.2293233  -1.6958135   0.1703472   0.1567909
  -0.3257420  -0.0183835  -0.0955953   0.0056346  -0.6478360  -0.3849196
   0.1079374   0.4344895   0.6004707  -0.3004794   0.1921997  -0.2263558
   1.3404760   1.3874922   1.0042399   1.9441431  -0.6269264  -2.0515530
   0.1284790  -0.2625562   0.4188927  -0.0701669   0.3367947   0.3357532
   0.8081995   0.2344286   0.6641300   0.0291713   0.5308453   0.0000818
  -0.1897526  -0.2534373  -0.6559297  -0.3354671   1.0820668   0.9533027
  -0.1853857  -0.2201440  -0.1802731   0.6656615  -0.4191775   0.8509777
  -0.1336809   0.1602077  -0.1734772   0.0370541   0.1561522  -0.1330621
  -0.2066230   1.2121509   0.9676862   0.8918958   0.2918631  -0.9350746
  -0.0225011   0.1364318   0.2062073  -0.5628117  -0.3020047   2.1957321
  -1.5703357  -0.1230032  -0.8657185   0.1927516   0.2466414   0.2558991
   1.1185008  -1.0949926  -0.5923421  -0.9383622   0.5399424   0.2315569
  -0.1137888  -0.1643292  -0.4287628   0.0386504  -1.2573061   0.2829355
   0.8103585  -2.5240781  -0.1474058   0.1331318  -0.0379648  -0.1485362
  -0.2211693   0.7813225  -1.0602733  -0.6517920  -0.6739665   1.5777857
   0.2412337   0.2015080  -0.2163433  -0.7926531   1.2701206  -0.1196605
   0.3894548   0.8339931  -1.0455495  -0.0272487  -0.0167912   0.1193853
  -1.0544683   0.7025400   0.4201942  -0.2291693   1.4505816   0.9399136
   0.5841267   0.0345528   0.1643180  -0.0385174  -0.6015950  -1.1946212
  -1.6214834   1.4742340  -0.4135819   0.0949135  -0.0665455   0.0235296
   1.0652932  -0.9844043  -0.1428542   1.0196054  -1.2831877   0.1479331
   0.0529213  -0.2656243   0.0087199   0.2646316  -0.9529696  -0.5438305
  -0.5206468  -0.5806713   1.3574774  -0.4550264  -0.5272661  -0.0116907
   0.1546445  -1.1844987   1.0324147   0.0411942  -0.5147799  -0.9372607
   0.1107024   0.0057063  -0.1651122   0.2605210  -0.7426929   0.6244187
  -0.2953831   1.6474195   0.5072927   0.0401698  -0.1617637   0.1243099
   0.6417417  -0.4584814   0.2814584   1.4393390   0.8327637  -0.8227447
  -0.0806434   0.1607615   0.1059047  -1.9384253  -0.6220855  -0.3617838
  -0.6248711   1.1068318   0.6793227  -0.0880591  -0.1189542  -0.0146144
   0.3258735  -0.8276762   1.7642740   0.6183978  -0.8836024   0.2834139
  -0.3604187   0.0714874  -0.3083560   1.1488162  -0.5519407   0.0171670
   0.4437691   0.3213337  -0.1210303  -0.3089787  -0.4472146   0.3667499
  -0.7487039  -0.2832838  -0.2439660   0.4994660   0.5071701  -0.9659883
  -0.0668097   0.0354065  -0.0138723  -1.6123511  -1.6423476  -0.0721890
   0.6939460   0.4538397   0.5674985   0.1020423  -0.3507052   0.3044127
   0.2798682   1.0999353   1.1706026  -1.0808144   0.1861890   0.6850733
   0.0769881  -0.0877544  -0.2036272  -1.2309591  -0.6054435   0.0542736
   0.8616303   0.1283254   0.8020412  -0.0678248   0.0734952   0.1788537
  -0.7706013  -0.3783128  -0.5115780  -0.3441140   0.3040118   1.0766869
  -0.0176222  -0.0970458   0.3292734  -0.4473549   0.4469898  -0.3753964
  -0.9780565   0.0277749   0.6227853   0.1852763   0.4866188  -0.1007053
  -0.4096416   0.0444777   0.3575729  -0.1444316  -0.1971153   1.4033908
  -0.0218772   0.1512826   0.0798957  -0.5985367  -1.3156053   0.2264751
  -1.9329796   1.3836560   0.8381002   0.0916478  -0.4549320  -0.0838853
  -1.1077861   0.1968275  -1.0995561  -0.5711042  -0.2124140  -0.0793562
  -0.1460988   0.4114382   0.0354864   0.2007304  -0.7580337   0.1839368
   0.8981582  -0.5999831  -0.1357822  -0.0126079   0.0183268  -0.0042114
   1.3450934   0.4575155   0.0225126  -0.5640626  -1.3124111  -1.4610744
  -0.0842577   0.1696736   0.1168994   1.5541193   0.4897016   1.3012687
  -1.3656362  -0.4168967  -0.3846686  -0.0806998  -0.3386860  -0.3468320
   1.4066495  -0.3508327  -0.0539511   0.5511022  -0.0915190   0.3639850
   0.2639324   0.1654132   0.0277209  -1.0275110  -0.5369692   1.0270736
  -0.3835621   0.0801035  -0.6538835  -0.1806596  -0.0515515   0.3984798
  -1.5463573  -1.0541083   0.5449297  -0.1610696  -1.0981836  -0.1487058
  -0.3454773   0.3494222  -0.2236417  -0.5858241   1.2315485  -0.7021662
   0.1770048  -1.1891005  -0.0971945  -0.1540835   0.1459096  -0.1664632
  -0.2019418   0.9829369  -1.6320844   0.1150969   1.3278741  -1.4154867
   0.0448101  -0.1258771   0.0644875   0.2397272   0.9466537  -0.1608055
  -0.7874164  -1.0900670  -0.2492793   0.4021619  -0.0707526  -0.4227737
   0.2391470  -1.0633924   1.1361289   0.0388752  -1.3016326  -0.3056077
  -0.0655452  -0.1253725  -0.3304730  -0.8819800   1.5595129  -0.7423549
   0.9412829  -0.1393442   0.9276958  -0.0060215  -0.1620886   0.1287665
   0.1308107  -0.0812782   0.0492742  -0.0224780  -0.0366737   0.4917295
  -0.1961236   0.1035333  -0.0700993  -0.3199436  -1.0006698  -1.2513665
   0.8380656  -0.8116740   0.6570050   0.0007698   0.2974671   0.0306586
  -1.3983359   0.3980250   0.5186756   0.9091725   0.6667448  -0.0975189
   0.1830897  -0.1097131   0.0458773  -0.7499161   0.7674747  -0.0183882
   0.0387907  -0.7515492   0.6511914   0.2644323   0.0628927   0.1106480
  -1.1783867   0.0023656   0.6524213   1.2174135   1.0249140  -1.0393937
  -0.0416067  -0.1993452   0.3030937   0.1010733  -0.1742064  -1.6001605
   1.2252167   0.1580309   1.0053451  -0.0109804   0.1021936   0.0365160
  -0.1507612  -0.3530371  -1.2822416  -1.1660483  -1.0605828   0.5625092
   0.5194923   0.1484052  -0.2879694   0.1549339  -0.2758253   0.0146555
  -0.0474772   0.9760720  -1.2795924  -0.2987531   0.3830891   0.0460096
  -0.3281035  -0.1953016  -0.7013817   0.1397124  -0.4111847   0.8866523
   0.1052960   0.2848943  -0.1764958   0.5069413   0.2674400   0.7423669
   1.4228419  -0.2497012  -0.1852688  -0.1276409   0.1386614  -0.0435905
  -0.1725064   1.2811067   0.2459073   0.7191624  -0.3987386   0.7374114
   0.1688124  -0.1159994   0.1519468   0.2006432   0.3992691  -0.8629717
  -1.3351916   0.3473973  -1.7415936  -0.1512583  -0.0530102   0.2383470
  -0.0647412  -0.1529732   1.4777067   0.2067487  -0.4943006   0.9167869
   0.1227059   0.0549602  -0.1290073  -1.1099287  -1.0444350  -0.6769814
  -1.5133439   0.4355894  -0.7113137   0.0325654   0.2677180  -0.2212442
   0.9737623  -1.2907540   0.8005117   0.3257451   0.8984852   0.1953910
  -0.1079789   0.0543552   0.1499394   0.3299548  -1.2187475  -0.4738466
  -0.6699124  -1.7706937  -0.6346831  -0.1086511   0.2508489  -0.2217129
   0.3499008   0.0621521  -0.7901264   1.0125613   1.2383124   0.7410843
  -0.1274664   0.2800487   0.4166616  -0.7360086  -0.6655095   0.7086319
  -0.2208638   0.6081401   0.6494508  -0.0899084  -0.0784000   0.3666020
   0.1845821   0.7135184  -0.0414809   1.5742916  -0.6211887  -0.2809188
   0.1598812   0.2984144   0.4371389   0.7922136  -0.9974789   1.0494452
   0.1838256   0.6636967   0.3304391   0.1506452   0.0155271   0.1016076
  -0.9015056   0.2252824   1.7114719  -0.1510651  -1.1102729  -0.9147013
   0.3100297   0.0693013  -0.0380238  -0.4428742  -0.1773496   0.7454621
  -0.4427929   0.5255190  -0.7744433   0.2508398  -0.3436928   0.0093872
  -0.7600033  -0.4096625   0.3286828  -0.2112307  -0.0873124  -0.2827909
   0.4002167  -0.1598494   0.1134773   0.8471181   0.5293765  -0.3954088
   0.1344150   0.2165817   0.1559394  -0.0044042  -0.1956126   0.0230310
  -0.6219046  -0.1238275  -1.4200245  -0.2194876   1.6347461  -1.6824402
   0.0827345   0.0956736   0.2545901  -0.3710501   1.0934680   0.1699140
  -1.2499850  -0.0985624   0.6453608  -0.1830183   0.1138701   0.2451266
   1.0778745  -0.7491403  -1.1413732  -0.3103635   0.8413407  -0.8166487
  -0.2720825   0.0195395   0.0647896  -0.6119577   0.5158976   0.4137188
   2.3393540  -0.9313771   0.1286931   0.2267932  -0.0977710  -0.0157432
  -0.1104235   0.6708780  -0.6099731   1.0156492   0.0193768  -0.1147675
   0.3420665   0.0141347  -0.3872360  -1.2582835  -0.7871567  -0.3414491
  -0.9933812   1.0571773   0.3236523   0.2038715   0.2483298   0.2910030
   0.8042454  -0.6320632  -0.6464151   0.3615657   0.5739332  -0.3257596
   0.0736630   0.1573890  -0.0971598  -0.4450672  -0.5657225   0.0141571
  -0.2548726  -0.8580018   0.6602077   0.0371450  -0.2444567   0.1192253
  -1.5361805  -0.7193712   0.4371659  -0.4475081   0.3647633   0.1188265
  -0.1845506   0.1429656   0.3554713   0.6519008  -0.6915136  -0.0538065
   0.3814875   1.1900038   0.7084875  -0.1134324  -0.3904473   0.1997914
  -1.9562088  -0.1672684  -1.6240892  -0.2054551   1.2328219  -0.9843143
  -0.0732598   0.0399258  -0.0173368  -0.6866697   0.3417121   0.3703098
  -0.1582024  -0.3566289  -0.4318817   0.2557603   0.0892599   0.2821742
   0.5177931   2.1588938  -0.3994984   0.9237792  -0.1372369   0.3317193
  -0.1341061   0.0955573   0.2356879   0.1259694   0.2142472  -0.1489890
   0.8630960   1.9356632   0.0480809   0.2763096  -0.2271194  -0.0586371
  -0.5247172  -0.0020704   1.3143290   0.0478228  -0.1599322   0.5595491
   0.2345494  -0.3663229  -0.0929414   0.1690317   0.9098598  -0.0873931
  -0.0059784  -1.1288602  -0.2341088  -0.3747993   0.0723879   0.1382996
   0.3228177   0.4204573  -0.3361929   0.3038954   0.2856747  -0.5067501
  -0.2016850  -0.2440753  -0.3569003   0.2526799   0.0500795  -0.5864012
  -1.0533271   1.0967940   0.2545690   0.0152412  -0.0599007   0.0964674
   0.0266954   0.0557131  -0.9489054   0.1694520  -0.5502682   2.1778898
   0.2151885   0.0673640  -0.2146448   0.8729145  -0.7510043  -1.0124130
   1.1868242  -1.6066750   1.8327374   0.0681719  -0.0935111  -0.0691632
  -0.4545731  -0.0314905  -0.3920406  -1.0570498  -1.3420546   0.7077938
   0.1264907  -0.1801466  -0.2953081   1.4509580   0.0751060   0.5237506
   0.2896084   0.2619166   1.1685524  -0.0033222   0.1653855  -0.1639572
   0.0125327   0.4317939  -0.0618367  -0.0351737  -0.8457314   0.3717250
  -0.0275882  -0.0693219   0.2190940  -0.2407569  -0.8958892   0.5567641
   1.2040665  -1.0977621  -0.1651980  -0.1162999   0.2711827  -0.4102667
   0.2591410   1.4800640   0.3236747  -0.9581767   0.4297504  -0.6357703
   0.2323364  -0.2308409  -0.2629195   0.0901859   0.4353188  -0.8920377
  -0.9130456   0.1207251   0.7575848   0.1352389   0.0160893  -0.0667455
   0.4406480  -0.4635780  -0.2404464   0.6100863   0.9179143  -0.6206596
   0.1063003  -0.3469341  -0.0266686  -0.0622920   0.1054695  -0.4878391
  -0.5112194   0.2580725   1.2066519  -0.2934410  -0.0894208   0.2093353
  -0.6920724  -0.3683871  -1.0324497   0.2099608   0.3773612   1.0046564
   0.2742231   0.2734070  -0.0713060   0.5981537   0.2532749  -0.4411272
  -1.8636531   0.8386206  -0.8853574  -0.1798721  -0.1273607   0.2314548
  -0.8629122   0.3006163  -0.6491259   0.6686851   0.6735191   0.4069825
   0.3399140   0.2102586   0.0680929   1.3567554  -0.2950011  -0.3058987
   0.1969177   0.5365551   1.6088586   0.0653955  -0.1315771   0.1840752
   0.7080295   0.6512908  -0.1713510  -0.5603606  -0.2966129   0.0271343
  -0.1312190   0.2154760  -0.2132579  -2.0714068  -0.1624749   1.2856072
  -0.3141011   0.1969927   0.2252116  -0.1890564  -0.5714581   0.2456913
   0.6640063   0.9944578   0.1081802  -0.8910601   0.7800792   0.0819362
   0.2832097  -0.0046179  -0.0514600   0.4967678   1.4135672   0.3903747
  -0.1142577  -1.0986575  -0.1090233  -0.1871895  -0.0385027  -0.0816172
  -0.2305517  -0.5296601  -0.7551644  -0.8567907   0.7153317   0.8264827
   0.1350513   0.0158877   0.4403408  -1.1233988   1.2735198   0.4451511
  -1.1856856   0.8173923  -0.3131157   0.0644607  -0.2651248   0.3085887
   0.8744899  -0.5236971   0.8191967  -0.8692079   1.3589077  -1.5443631
   0.2269303   0.3190534  -0.2157887   0.6000234  -0.5794575  -0.1606164
  -0.3829756  -0.0242782   0.8025474  -0.1983282   0.2639235   0.0613951
  -0.4520603   0.8394442   0.4584427  -0.5898304  -0.7547800  -0.7291138
   0.1356213   0.0947485   0.0616755  -2.0114176   0.9334062  -0.4831211
   0.4148662  -0.0922063   0.7616334  -0.2857594  -0.2607525  -0.3581647
   1.9243946  -0.1156327   1.5053436   0.1523722   0.1903837  -0.2416731
  -0.0736706   0.1246266  -0.2333214   0.9383879  -0.3069110  -0.2146387
   0.2348137   0.1327038  -1.1828357  -0.2192698  -0.0675089  -0.2405161
   0.5916914   0.6143200   0.6240361   0.2965189   0.2856199   0.3149395
   0.0960243   0.2259317   0.4551859  -0.7556755   1.0475287  -0.5055442
  -0.1176085   0.6216471  -0.1832028  -0.2376508  -0.0765382  -0.1278481
   0.8316732   0.8255817  -0.5373777   0.4593159  -1.3310494  -0.3039503
   0.2464882   0.1886972  -0.3437480  -0.9328595  -0.3019809   0.1730877
   1.0645845  -0.3233560   0.8656694  -0.1812352   0.3582149  -0.0198532
   0.4547899  -1.2421575   0.0018285  -1.1163955   0.4776929   0.2146392
   0.1948334  -0.1139960   0.3094489   0.1752427  -1.1744878  -0.9552841
   0.6983832   0.7534497  -1.1103501  -0.0382041   0.1358984   0.0082398
   2.2014945  -0.2419907   0.9295685  -0.1892689  -0.0098825  -1.8355942
  -0.0249273   0.0165814   0.1425434  -0.5719550  -0.8104081  -0.4881616
   0.0283600  -0.5318530  -1.1247300   0.1005922   0.2962319   0.2868442
  -0.1627674   0.0771539  -0.2602022  -0.1242593  -0.6483877   0.6233618
  -0.1058774   0.2094800   0.2892531  -0.6063763  -1.2317891   0.5749198
  -0.7285308  -0.3352669  -0.5780616  -0.4498971   0.2576130  -0.1500345
  -1.5476382  -0.1786064   0.0175066  -0.2608828  -0.4155970   0.0655054
  -0.1756084   0.1089725   0.0178025  -0.6495916   0.2853374  -0.0080437
   1.5897923  -0.3550433   1.5230742  -0.1355157   0.3161996  -0.1003764
  -0.1582133   0.5630772  -1.1958419  -0.0279449   0.3816392   0.2488347
  -0.1336008  -0.1078430   0.0012517  -0.3189045   1.3448560   0.1560928
   0.5515586   0.1157053  -0.0621570  -0.0271969  -0.1536983   0.3149503
   0.2775102   0.0343969  -0.5038109  -0.0310184  -0.5744959   0.7319210
   0.0171577   0.1583185  -0.2368865   0.6106450   0.1677331   0.0109893
   0.6622641   1.0660126   0.0533575  -0.0576725   0.0089564   0.1769883
  -0.4393677  -0.2051669   0.5554551  -0.3261726  -0.3724420   0.7283807
   0.0811640   0.1595614   0.1341833  -1.2955914   0.1490430  -1.4207141
   0.3603027   0.5656699  -0.0124659   0.1590183   0.1561857   0.0690629
  -0.8942979   0.2418378  -0.0742719   1.0037671  -0.9570834   0.7483475
   0.0613534   0.0661767  -0.0122139   1.2500678  -0.1195855   0.9825444
   0.2426622   0.2465766   0.8040399   0.2304936   0.1803491   0.0183430
   0.8151561   0.3907524   0.2588613   1.1104695  -0.8427658  -0.9805804
  -0.4650458   0.3135151  -0.2122401   0.0719425  -0.5650718   1.1683813
   0.9632660   0.8172904   0.0658229  -0.1265787  -0.0275961  -0.0360457
  -1.2285894   1.9704093  -0.0359231   1.1198815   0.2791994  -0.3645747
  -0.2688708   0.1005094  -0.4734515  -1.3634520   0.9534476   0.3840688
  -0.0771267  -2.7888446   0.4857332   0.2027526  -0.1618078   0.0560794
  -1.2254462  -0.6016058   0.6262827   0.4486458   0.4004060   0.6097218
   0.0410651   0.0785171   0.2798125  -0.4151213  -0.5665196   0.2394096
   0.8066508  -0.6185166  -0.3958385  -0.0926266   0.2059669   0.0205503
  -1.2639023   1.0217651   0.8993367   0.8073545  -0.1435975  -0.8001029
  -0.0278464   0.1635822   0.4377636  -1.5107080   0.3471280   0.1620431
   1.1787306  -0.6501554   0.9035910  -0.2126200  -0.0729450  -0.5410438
   0.1576976  -0.7045522   0.4249789  -1.9466099  -0.2704593   0.7892907
   0.0263703   0.0898975  -0.0920797   0.0550158   0.1304557   0.2518166
   0.4387524  -0.0016981   1.2947891   0.0740717   0.1114225   0.2713329
   1.4539442   0.0805482  -0.0205118   0.0539760   0.1456599  -0.2885248
   0.0309040  -0.1389963   0.1827274   1.4308878   1.0847108   0.2091096
   0.7270902   0.0084751   0.9274074   0.1316240   0.3573243  -0.1561665
   1.1452340  -1.0110403  -0.3375604   1.8391159  -0.4998339   0.8692882
  -0.2084997  -0.2438391  -0.0192711   0.7835923   0.4553889   0.3399867
   0.9791967   0.9582480   0.4487991  -0.0514014  -0.0098222  -0.4774910
   0.1962569   0.0144812  -0.1894196   1.2676725   0.4666885  -0.8261927
  -0.2029056  -0.0656893   0.2462886  -1.6966136  -0.0656013   0.4333790
   0.1419960   0.0966416   0.4503301  -0.0155802   0.0546033  -0.0377161
   0.8088552   1.6145575   0.2311331  -0.4086399   1.0318096  -0.0381625
  -0.0737122  -0.1530776   0.0141306   0.3676598  -0.4744653   0.7227065
   0.0066372   0.2526821  -2.3368163   0.3860166  -0.1314662  -0.1963267
   1.3078556   0.6882538   0.6894579  -0.2836831   1.0875784  -0.3772157
   0.1525728   0.0302556  -0.1480165  -0.5481956  -1.2473347   0.1745013
  -0.6451215  -0.2499537  -0.0188755  -0.1352648  -0.0285535  -0.1036863
   0.1240007   0.1746968  -0.3536153  -0.3892315  -0.5478361   0.2991783
  -0.1474798   0.0789412   0.0858923  -0.2414262   0.5543835  -0.1078937
  -0.2523993  -0.4589142   0.3944172  -0.2219809  -0.2049122  -0.0403933
   0.5403028  -0.0162740   0.2802678  -0.3737866  -0.9939521   0.0351182
   0.0917372  -0.0609587   0.3457660   1.7405713  -0.5453391  -0.8081919
  -0.1748262  -0.2586649  -0.8418853   0.0084219  -0.4954058   0.0635451
   0.4155770   0.6859568  -0.1716838  -1.0012482  -0.6100858   0.6222600
   0.0326241  -0.0920780   0.1794921   0.2520641  -0.5366285  -0.0604058
  -1.1646708   0.6115361  -0.1156894  -0.0088405  -0.2759234  -0.1734996
   1.6031415  -0.2192915  -0.6296284  -0.5625913   0.6778061   0.1427196
   0.0563029  -0.0981475   0.0800652  -0.0871514  -0.0522795   0.9289775
  -0.8218248   0.2685685   1.1361865  -0.1032653   0.0061051   0.3578139
  -0.6396462  -0.4918891  -0.4274607  -0.9531055  -1.0004280   1.0904450
  -0.3921173  -0.2745338  -0.0790784   1.0031095  -0.4157076   1.4189416
  -0.8589988   0.0260726   0.2441372  -0.2959023  -0.0984958  -0.2869755
  -0.3149904  -0.3160695   0.4284931   0.0743446   0.2707686  -1.6012434
   0.2701827  -0.3928124   0.0847278  -1.8289245   0.3407515  -0.0577681
   0.8261191   0.3582129  -0.9348290   0.2375458  -0.0892705  -0.0936581
  -0.1327903  -0.0914500  -0.2782595  -0.5708756  -0.9011616   1.0601382
   0.0221263   0.1058451  -0.0848317   0.2198527   0.2052344  -0.5754498
  -1.2568934   0.9486182   1.4372009   0.2359135  -0.0879027  -0.1095708
  -0.7591419   1.0956955  -0.4402236  -1.0442755  -1.2502853   0.4583105
  -0.0711533  -0.1230222   0.2216064   0.0632762   0.0187485  -1.2080815
   0.8330566   0.7235867   0.8855010   0.0559226   0.0275969   0.1092774
  -0.1305644  -1.8668598   1.1521715   0.3316076  -0.2020150  -1.4156338
   0.0511328  -0.2656249   0.1946779  -0.0384292   1.4530106   0.1274936
   0.5950485   1.0398275   0.4654359  -0.1467446   0.1994218  -0.2076733
   0.6507007  -0.0871822   0.9813278   1.3144248   0.0914839  -0.6123193
   0.0970744  -0.0288474   0.3978136   0.4143414   1.0144252  -0.0471564
  -1.3350769  -0.3221024   0.1861934  -0.1425777  -0.0163219  -0.1310600
  -0.4435877   1.4806863   0.1174958   0.2912628   0.1265207   0.1781287
   0.1220317  -0.2885220   0.0766332  -1.0971003   0.7056952  -0.8413263
   0.0149527  -1.1161749  -0.4880283   0.2436614   0.3118258  -0.2754075
  -0.0047262   0.4670782  -0.8997433  -0.0967444   1.5908847   1.8742989
   0.0077703  -0.3631696   0.3339379  -0.8987205  -0.5881065  -0.3783766
  -0.4445408  -0.9435034  -0.2667949  -0.1989184  -0.0273601   0.0471171
   0.4491705   0.9934227   0.3357226  -1.1677929   0.1812858  -0.3141066
   0.2997640   0.3109845  -0.0632117   0.2103052  -0.1096727   0.0037695
   0.6041312  -1.0291579   0.0728334  -0.3804920  -0.2794191  -0.3569737
   0.2067419   0.2968524   0.8853676  -0.5009781   1.2109014  -0.1580241
  -0.1852999  -0.0681993   0.0472778  -0.2338210  -1.0939089   0.3513321
  -0.6249412   1.1093712  -0.5149386   0.0857433  -0.0076354  -0.1093355
   0.4034390  -0.5239909  -0.9985219   0.5856141   0.1022530  -1.1752247
  -0.2441719   0.0137798   0.1089282   1.7780057  -0.6470832   0.8856543
   0.3784248  -0.6534395   0.2277445  -0.0566377  -0.0435632   0.2136409
   0.3563039   0.0526403   2.0542068   0.6230866  -0.4078576   0.7867414
   0.2496389   0.4453307   0.1183941   0.5414331  -0.4704690  -0.4758444
  -0.6051955   0.7083102   0.6475168   0.1438343   0.2302371   0.0689165
   0.6663201   0.8290135   0.0786022  -1.5625566  -0.1267099   0.7629159
  -0.2296411  -0.2238605   0.1206940   0.8616891  -0.7685986   0.6357946
  -0.5274816  -0.1379105  -1.2686673  -0.0492094   0.0191471   0.2336647
  -1.7246358  -0.9897771   0.6905732  -1.1441661  -0.4613925  -0.2038551
  -0.2433927   0.0494886  -0.3796677   0.0305328   0.4762951   0.2983516
  -0.2518552  -1.1675847   0.8369626  -0.1189504   0.3453269   0.0271652
  -0.1301224  -0.3296520  -1.5505332   0.5832326   1.1166148   1.4225867
  -0.1120798  -0.1924523   0.3378085   0.0448913  -0.3655982  -1.0669012
  -0.5166712   0.1370074   0.3605838   0.2008647   0.1176186  -0.2220368
  -0.1308300  -1.0027701   0.9341162  -0.8382573  -0.2884023   0.7511958
   0.1187050  -0.1797944   0.4930168  -1.2760774   0.6843246   1.2746357
  -0.1107899   1.1935101   0.2817841   0.4396113  -0.0132201  -0.1311268
  -1.1714522  -1.6560713   0.2129834  -0.7859519   0.6961820   0.1352776
   0.0877750  -0.0175497   0.0403387  -0.2265425  -0.4211427   0.2547188
   0.6113373  -0.6589904   0.3331040  -0.0983089   0.2379066  -0.3171805
   1.0051352   0.9869566  -0.1837559   1.4371270   0.4773141   0.9673507
   0.2111086  -0.0690081  -0.2158685  -0.1260650   0.6062991   0.5061574
  -0.8894511  -0.0640324  -0.0840002   0.1004025  -0.0957129  -0.0354472
   1.3743770   0.7992075   0.9547437   0.9700329   0.3412611  -0.3133216
  -0.0639968  -0.0689614   0.1157580   0.0680295  -1.0901794   1.5227722
  -0.2702645  -0.1342263   0.3681823  -0.1062285   0.1442791  -0.1510646
  -0.3844044  -1.0935454  -0.5088416  -0.0926698  -0.3587754  -0.0730193
   0.0003114  -0.1664677   0.0031396   0.7131472  -0.3955771   0.0984379
   0.2187572  -0.4502225   1.0835611  -0.1042170   0.0786430   0.2602052
  -0.8211927  -0.2171504   0.4033731   0.7321286  -0.0443113  -0.7382509
   0.1999884  -0.4443865  -0.0100939   0.9104223   0.6671208  -1.1861405
  -0.5154621  -0.3684039   0.5232611   0.1598804   0.1617749  -0.0598489
  -0.5328126   0.5263442  -0.4270567  -0.7788862  -0.2442757   0.5600622
   0.0310322   0.1437865  -0.1182940  -0.1121374  -0.0216955   0.7424945
  -0.7182134   0.2173023   0.1670158  -0.3032008  -0.1684647   0.2713597
   0.3864082  -0.1733153   0.4959470  -0.6035796  -0.5767891   1.2678227
   0.3020266  -0.1884201   0.1750305  -1.2007314   1.3869239   0.4962939
   0.7714282   0.6170819  -0.1046535  -0.0155468   0.0234831   0.1188503
   0.6979518  -0.3369540  -0.6276664   1.4982897  -0.1304227   0.0913661
  -0.1322479  -0.2385101  -0.0879001   0.6892908  -1.3122075   0.1795351
   1.1525540  -0.2315286  -0.3276913   0.0617641   0.1152147  -0.4620334
  -0.8579165   0.2721978  -0.2642072  -0.2854068   0.1601228  -0.0563701
   0.1027615  -0.0182907  -0.0614967  -1.2624506   0.4848034   0.5592763
  -0.0926876   2.1037800   0.6167920  -0.0894684   0.3165425   0.2784629
  -0.6530066  -0.1638253   0.3851085  -1.1284969  -0.8515311   0.3110855
  -0.3264642   0.2821960   0.1133995  -0.4615048  -0.1238699   0.3297030
   0.8925554   0.3360750   0.1782781   0.0648006  -0.2429076   0.0406187
  -0.7276225  -0.2398480  -0.1008333  -0.8106968  -0.5405505   2.2088604
  -0.3305748  -0.0007253  -0.1519613   1.1432223  -0.7764945   0.5721869
   0.3145141   0.5746765  -0.1884788  -0.0198270   0.1289842  -0.0308303
   0.7621676  -0.8362036  -0.0457842  -1.4603920  -1.0397700   0.1494664
  -0.0933487  -0.1315686   0.0420488  -0.0177793   0.2367492  -0.4574729
   0.3145658  -0.7656404   0.1845313   0.0583836   0.1641211  -0.2181343
   1.1323867  -0.6275457   0.2379718  -1.2327690  -0.2576545  -0.2235473
  -0.1945986  -0.1102197  -0.1715687  -0.7918826  -1.2145697   0.2113961
   0.2517724   0.0263600  -0.3281585  -0.3116927   0.0312596  -0.0904383
  -1.0384966   0.9613899   0.0443179   0.6862711  -0.9981561  -1.3405915
  -0.0784099  -0.0378215   0.3584236   0.3874647  -1.1475252  -0.5620497
  -0.1871261   0.4005460   0.4300082  -0.2384299  -0.3289067  -0.1967170
   1.0773779  -1.0092820  -0.2672294   0.8876181  -1.0328988   0.2057889
  -0.2898548  -0.1696617   0.3241695   0.3800461  -0.0490632   1.1538706
  -0.0161307   0.7642803  -0.6252627  -0.1726837   0.2266185   0.3008558
   0.3128805  -0.2518715   1.2513728   0.5790198  -0.5811553   1.5006691
  -0.2818907   0.1459141  -0.0665817  -0.9147393   0.3416686  -1.1853176
  -0.1632283   0.8858075  -0.9059934  -0.4165899  -0.0641462  -0.0093568
   1.1062452  -1.1552622   0.3980402   1.1204708  -0.1350905  -0.4208902
   0.1644350  -0.4666156  -0.1079115  -0.3294385  -0.3834341   1.6096172
  -0.8828227  -0.1733282   0.5177871  -0.1811905  -0.1619888  -0.2325156
  -0.2109011  -1.0815021  -0.7794691  -0.6787472   1.1299629  -0.6753573
   0.2251668   0.1738335  -0.2161051   0.0645384   0.7863947   1.1976615
  -0.8329515  -0.8733363   0.3896302   0.0098406   0.0801639   0.2922616
  -0.6214934   0.8040152  -0.0577657  -0.0535781   0.8551471  -0.3761159
   0.1886048   0.1527599  -0.1413654  -0.7550439   1.8270408  -0.6649452
   0.8790087  -2.2222829   0.8769420  -0.0061594   0.0743261  -0.1833855
  -0.0819062  -0.3887081  -1.1391641  -0.1792929  -0.1324090  -0.6265243
   0.1747298  -0.2366731   0.0433370   0.5472021   0.1604864  -0.5193843
  -1.8433336   0.3866120  -0.5837241  -0.0275866  -0.4264093  -0.3597343
  -0.7128377  -2.2615604  -0.2466803   0.9784229  -0.6056249  -1.6659590
  -0.0769903   0.0716617  -0.1172089  -1.3144147   0.4540572  -0.4296454
   0.5274464   1.6007522   0.6898287  -0.0714730  -0.2779857  -0.0370588
  -0.4766459  -0.1040547   0.1268840   0.9431031   0.3430769  -0.7887994
  -0.0771077   0.1307565   0.0731917   0.7055714   1.0988990  -0.0060126
  -1.5743632  -2.1925790  -0.0153272  -0.4243721  -0.2673253  -0.0757727
   0.5825957  -0.3831174  -0.5995585   0.2731134  -0.1327509  -0.2276231
   0.2270598   0.1939714  -0.0909581   1.0244166   1.2105315  -0.0125655
   0.4375502  -0.9216290   0.4138537  -0.2572191  -0.0244061  -0.1633276
  -0.5530363   0.3453954   0.7095341  -0.8211648   0.2035735  -1.7289724
  -0.4272748   0.1054207   0.4803709  -0.0722551  -0.5648023   1.0453378
  -1.1081957   0.3974123  -0.8718250   0.1600025   0.4661257   0.0128661
  -0.0800253  -0.2677763  -0.1412290   0.3167345   1.2970467  -0.3925100
  -0.0026120  -0.0282109   0.2278910  -0.7593963  -0.2364133   0.6059290
   0.8054909   0.6855516   0.4505135   0.3196706  -0.0297321   0.1843488
  -0.0868202  -0.1911401   0.3182305  -1.1223969   0.1593637   0.7081873
   0.0596206   0.0321293  -0.1318187   1.8783641  -0.6845983   0.1241351
   0.5341386   0.2406761  -0.4232943   0.0106107  -0.0558535   0.3734242
  -2.1514428  -1.3338919   0.9229082   0.0569963  -0.7921261  -1.0119387
  -0.1816103   0.0967545  -0.2532030   0.4172658   0.0791673  -0.2318064
  -1.6348176  -0.5438040   0.4814640   0.1518384  -0.1006727   0.0881582
  -0.2529111   0.9031447   0.3387855   0.4656678  -0.0690917  -0.7570736
   0.3815155   0.1861440   0.1088400  -0.6531167  -0.4347920   0.2598237
  -0.0583128  -0.4789959  -0.5600357  -0.0250028   0.1077125   0.2486480
   0.0226913   0.6424709  -0.7785017  -0.5453167   0.7884491  -0.6965259
   0.2796557   0.1745617  -0.0848835   0.3888904   0.5111244  -0.9399161
  -0.5610366  -0.1543005   0.9253883   0.1372132  -0.1623613   0.3454778
  -0.5644216   0.8083963   0.3253515   0.1973061   0.3188893  -1.4443607
  -0.1676261  -0.4199552  -0.0471807   0.6140437  -0.8198404   0.4283762
  -0.0329481   0.0385163   0.2828979   0.1518762   0.1038294  -0.2457980
  -1.3047663  -0.1585329  -0.2395602   0.0851537  -1.3922781   0.5320870
   0.0759264  -0.1566298   0.4090424   0.3932542  -0.6696820  -0.6250648
   0.0156745  -1.2296106   0.1731426   0.0587277   0.0383606   0.2114191
  -1.2906682  -0.3017335   1.5544670  -1.0399544  -0.8168475   1.1725867
   0.0124037   0.0396468   0.0294478   0.6869537  -2.0609481  -0.4585621
   1.2797941  -0.3653034  -0.4972428  -0.2798383   0.1329653  -0.0251282
  -0.8566645   0.1584880   0.8476508  -0.0850203  -0.3417531  -0.7142168
   0.3041391  -0.0885006  -0.0396578   0.1482950  -0.2771232   0.8106454
  -1.8843427   1.0363798  -0.4720061   0.1506692   0.2301492  -0.1309731
   0.6008335  -0.6002867   0.2849225   0.0537255   0.1579203  -1.2516648
   0.0959998  -0.0041569   0.2336249   0.3435416  -0.0521142   0.3761267
   0.1528527  -0.8270110  -1.1919622   0.0528942   0.1568670  -0.0802684
   0.3804454  -0.2300814   1.2513818  -0.0040987  -0.4864548  -0.9024007
  -0.4188665  -0.1294669  -0.2918150  -0.1146594  -0.0085251  -0.2986177
   0.1427886  -0.0096907  -0.5863092   0.1148463  -0.1783190  -0.1119241
   1.0325410   0.5605985   0.1102352   0.4890698  -0.0320475  -0.7601957
   0.0400798   0.1072705  -0.3357874  -0.2609971  -0.0677423  -0.1869548
  -0.8113062   1.8816782   0.4518160  -0.0013641   0.0233100  -0.2574237
  -0.0336956   0.5674971   0.2417170   0.3113031   0.1987701   0.5562531
  -0.0607430   0.0080312  -0.0582268   0.5653064   1.0711629   0.4695895
  -0.0830701   0.1953766   0.0769144  -0.0922171   0.0301788   0.1287682
  -0.0709166   1.7058575  -1.0503868  -0.7086200  -0.7775635  -1.2328933
   0.0055598  -0.2496801   0.1073002  -0.9689809  -1.0318201  -0.0029777
  -0.1474831   1.1880548   0.5850572   0.1807993  -0.0911231  -0.0255787
  -0.6546121   0.8107070  -0.2877363  -1.4353830  -1.4555320   0.5226023
   0.0342604   0.0558539   0.2424113   0.4558677  -1.2331161   0.4680240
   0.1524950   0.0612675  -0.7218305  -0.2993869  -0.2043623   0.1244393
   0.2135663  -0.6681006   0.4816821  -0.5615253  -0.2110521   1.2341619
  -0.2084938  -0.0206535  -0.2362063   0.0231122   0.9203388   1.1647518
  -0.3593200  -0.3438402  -0.2349551   0.2736444  -0.0314908   0.2220089
  -0.1131540  -1.3990940   0.2215478  -0.1961348   0.5334157   0.0446626
  -0.1444188  -0.0029581   0.3673839   0.0601610  -0.5561354  -0.5947205
  -0.7804788   1.1285709   0.0507995   0.0820738  -0.1112838  -0.4750033
   0.1036167   1.1879805   0.8637887   0.5359318   0.5606605  -0.6174876
  -0.0553851  -0.0628854   0.1175445  -0.6995398  -0.9552432  -1.1236743
  -1.1724147   0.2817883  -0.9659657  -0.2282298   0.1070435  -0.2565348
  -0.3903001   0.3288083  -1.6073308  -0.6351656   0.4860224  -0.1001194
   0.0781310   0.1473947  -0.0059495  -0.7147920   0.4504433  -0.1363881
  -0.3525423  -0.5610955  -1.9754366  -0.0423301   0.1480980  -0.2163963
  -1.0645487   0.0798005  -0.6622699  -1.0794765   0.2463466  -1.1978785
   0.2720914   0.4686515   0.4489096  -0.7452031  -0.3900945  -0.2093284
   1.0664982   0.1106147   0.0198621  -0.0411355   0.0344316   0.1065496
   0.8487592   0.4245982  -0.1209159   0.0557317  -0.1773406  -1.4974564
   0.2129138   0.2406688  -0.1127651   1.2784579   0.3061321  -0.0347553
  -0.3881328   0.4028547   0.2406911  -0.2904547   0.1662852  -0.1014605
  -0.1975208   0.0036075   1.0858984   0.2194087   0.3850897  -0.2271627
  -0.0732219   0.0685401   0.0075342  -1.0871298   0.1781422   0.2640094
  -0.1433132   0.7926276   0.2303503   0.0525931  -0.0445260  -0.0161535
   2.0059838  -0.8067062  -0.1365396   0.4785834   0.3434930  -0.8730194
  -0.1509321   0.0849490   0.1367155  -0.7101223   1.1106102   0.0702500
   0.1621610  -1.3113838   0.4521540   0.0292626  -0.0789720   0.2942941
  -1.1633946   1.0015815   1.2319375   0.2521471  -0.8623011  -0.9655949
  -0.2193930  -0.0609158   0.0788728  -0.7340119   0.5616795  -0.3273923
  -0.9220826   0.0785031  -0.3799698  -0.0664698  -0.3043376   0.2784992
   0.8928489   1.5450320  -0.2211001   0.1403164  -1.8175906  -0.8735382
   0.0401143  -0.1783177  -0.0621483   1.1249273   0.2377852  -1.5468538
  -0.4732443  -0.5605479   0.6122627   0.1867644   0.1801063   0.0812555
   0.9008010  -0.5635709   0.6606923  -0.3907975  -0.1592559  -0.5348028
  -0.2034378  -0.1719100  -0.0010817  -0.2708857  -0.0579751  -0.1064983
  -0.2299437  -0.3535013  -0.4357007  -0.0791725  -0.2308004  -0.0900411
   1.6827749  -0.6604533   1.1672770  -0.0311880  -1.4477800  -1.3366059
  -0.0114131  -0.0113684   0.0048458   0.4245390  -0.8935271  -0.5692684
  -0.6502461   0.2077821   1.0805966  -0.1404764   0.0584349   0.0494236
   0.2969637  -0.7509779   0.3502717   0.8883243   1.1042291   0.0666458
   0.2488155  -0.1205685   0.0912554  -0.3603241   0.1813183  -0.6467288
  -0.7394856  -0.2228006   0.0157912  -0.0897718  -0.0859720  -0.1852896
   1.0272096  -0.0915242  -0.0905593  -0.8934897   0.1915395  -0.5244122
  -0.1420799   0.3759521  -0.2083113   0.0182731  -0.0199644  -0.4073643
   1.0346304   2.0375204   0.7500941   0.0042009  -0.1590976   0.1085437
  -1.0600420   1.2216516   0.4982415  -1.4897180   0.2094892   0.3747181
  -0.0391317   0.0791781  -0.0279239  -0.6379701  -0.6934886  -1.3883690
  -1.2066249   0.0894597  -0.1932272  -0.0388212  -0.1932041  -0.2488075
   0.0560335   1.5495784  -0.0461354  -0.3921885  -0.3521460   0.9654850
   0.1380475   0.0162819  -0.0290143  -0.1932250  -1.6337355   1.2086012
   1.6114999  -0.0235406   0.2173220   0.1074963  -0.0427222   0.1654024
  -0.1358979  -0.0943595  -0.1818421  -0.7489629  -0.2783804   1.1128591
   0.1986845  -0.0618025   0.4740335   0.3573470  -0.3347954   0.2245148
  -0.2251519  -2.1860261   0.0672690  -0.0044423   0.4217436   0.2036106
   1.5092039   0.2655520   0.5066353   0.5980655   0.1207101   0.5897242
   0.5855463   0.0305533  -0.2642994   0.3281277   1.1915122   0.7163953
   0.7663968   0.4996500  -0.4189155   0.1865802   0.0850310   0.1350804
  -1.0119776  -0.2147149   0.5814822  -0.5887672  -0.0207324  -1.5089763
  -0.0534123  -0.5318689  -0.0343752   1.4063960   0.2908334  -0.7189920
   0.4549328   0.4920340  -0.5752094  -0.0188532  -0.1441239   0.0220276
   0.6003739  -1.1877623   0.1510908  -0.7120357  -0.4557715   0.4423575
  -0.0841582  -0.0673892   0.0916979  -1.2870802  -2.0870335   0.2303428
   0.6739426   0.7548928   0.0756199   0.1442428   0.0402840  -0.1896996
  -1.8560023  -0.8856730  -0.9516776   1.5691786   0.4444785  -0.1537956
   0.1083244  -0.1683671  -0.0344293  -0.4486136   0.5865313   0.7817898
  -1.4526439   0.2044269   0.7412234   0.0896143  -0.0677775   0.1690604
   1.0447369   1.3838158   0.3409315  -1.5056648  -0.0378116   0.0113252
  -0.1122936   0.0137226  -0.0938829   0.6283692   1.5077913   0.3569269
  -0.3828038  -0.9859796   0.2336375   0.3249309  -0.1825364   0.1643861
   0.3607288  -0.7852992  -1.1371199  -1.0792347   1.4240488   0.8752643
  -0.2049206  -0.2019369   0.0056019   1.2052310  -0.3536279   0.6587996
  -0.1428647   1.1710317   0.2469002  -0.0152456  -0.2856682  -0.0615624
   0.6438959  -0.1357591  -0.4465912   0.9111252   1.7436231  -0.6078829
   0.0138952  -0.0982625  -0.0053679   1.1110365   0.8295896  -1.2665341
  -0.1022391   0.7246982  -0.9156116   0.0477851  -0.1194729   0.1585163
   1.0108968  -0.3336098  -0.5899954  -0.4640224   0.5571764   1.2524656
   0.1146384  -0.2472115   0.3035852  -0.4252755  -0.1930827  -0.4951057
   0.0796093  -0.0464675  -0.6966763  -0.1330798   0.2976140  -0.3110152
   1.0969344   0.6950455  -0.7695126  -1.1916199  -1.8507373  -0.7664481
   0.1246205   0.0056218   0.1979716  -0.2437019   0.5899700  -0.1709006
   0.0993405   0.1608317  -0.0067294  -0.3859220  -0.3436441   0.1793749
  -0.0455337   0.8457497  -0.2909757  -0.5910741  -0.4098362  -0.5028971
   0.1482022  -0.0376476   0.0840920  -0.8638399   0.2563554   0.5485680
   0.0516688   0.6227437  -1.4007934   0.0295257   0.2392071   0.1548592
   0.2616565   0.0307065   0.4968426   1.5158741   2.2333276  -0.1538133
   0.0164609  -0.2980231  -0.2327001   0.6380929   0.4368186   0.6211847
  -0.0901274   0.5720600   0.7450098   0.1151469   0.0402713  -0.0897569
  -0.6335335  -0.8087872   0.5599264   1.0747234   1.5483799  -0.1902538
  -0.0907087  -0.2321889   0.2666336   0.4852787  -0.1457396   1.4916761
  -0.4852731   1.5110012  -0.2981618   0.0746401   0.0870171   0.3194333
  -0.6415113  -1.0093284   0.8451675   0.4345410   0.2084684  -1.1819514
  -0.1723885  -0.0420455   0.1185193  -1.7469060  -0.8987008  -0.1433258
   0.1697371   0.6263905  -0.1227808   0.4099953   0.0275421  -0.0751138
  -0.0073546  -0.2478965   0.0418448  -1.4608864   0.0927308  -0.1046522
  -0.0910643  -0.2664982   0.1928571  -0.7612467   0.1585544   0.2531938
  -0.5941347  -0.0437212  -0.4712655   0.1787617  -0.3069837  -0.1200390
   0.1076399   0.9949561  -0.4755977  -0.9662750  -0.8389555   0.3746737
   0.1934439  -0.0903875   0.2442005   0.7869392   1.0511060  -0.0357102
  -0.4978761   0.4986812   0.8658341   0.1067402  -0.0639338  -0.4652921
   0.3150403   0.3260865  -0.1076575   0.6034719   0.5863447  -1.5186124
  -0.3682194  -0.0480264  -0.1288425  -2.4020932   0.4301162   0.3050483
   1.7691919   0.8194318  -0.1359048  -0.1350121   0.2220186  -0.0909390
   0.6065297  -0.0154103   1.2339094  -0.1850883  -0.8522550   0.1544352
   0.2444634   0.0001287   0.2421126   0.6895589   0.2889169  -1.0933685
   0.1479751  -1.0603640   0.5780149  -0.3044348   0.1237963  -0.0882810
   0.0182280   0.7744511   0.7969171  -0.2681682  -0.3280609   0.5097334
   0.3336186   0.0577127   0.0447563   0.3467434  -0.5933104  -0.1106182
  -0.2915566  -0.7677948  -0.4354503  -0.0512699   0.1346873  -0.0699329
   0.8244461   0.1904067   0.3353477  -0.0445143   0.8163803   1.0316381
   0.1964516  -0.3160494  -0.0195618  -1.9838017   1.5821249   0.7870908
   1.2500962   0.7170992  -0.5167758   0.0124630  -0.0793269   0.3492677
   0.6651971   0.1699932   0.1239900  -0.4653572  -0.9294167  -0.8214533
  -0.1370560  -0.0956527  -0.0282487  -0.7482747  -0.0964038  -0.0506421
  -1.0100414  -0.1371808   0.2628453   0.1408771  -0.4596112   0.1514337
   0.4863193  -0.4805150   0.6321710  -0.3436264  -0.3075563  -0.3453169
  -0.1093467  -0.0293147   0.3150019   0.7812960   0.5725227  -0.1208568
  -0.2845663  -0.0551485  -1.2516686   0.1395295   0.3123064   0.0659064
   0.5465425  -0.6681812  -0.7613066  -0.8631938  -0.0767568   0.2615052
  -0.1784068  -0.2230648   0.1203735   0.2139407   1.7077144   1.4055020
  -0.0209679   0.0049627   0.6462418  -0.0215900  -0.0207724  -0.0590319
  -0.5324407   1.1824528   0.8001115  -0.0725671  -1.5248325   1.2470596
   0.2234789  -0.0994616  -0.2587346   0.1894882   0.3765320   0.0565943
  -0.1589466  -0.3945523  -0.4766062   0.2698840   0.1561228  -0.0896208
   0.2385835   1.1639746  -0.4084210   0.4535062   0.0351750  -0.2642077
  -0.2736240  -0.2134451  -0.2175094   0.5392455   1.4966760  -0.4296733
  -2.0693264   0.0988207   0.2986944   0.0444026  -0.0046989  -0.0172310
   0.5078940   1.0971041  -0.3463876   0.8949177  -0.3465365  -0.3281656
  -0.2244060  -0.0187163  -0.0820581   0.3575771   0.1406033   0.6469622
   0.4572774  -0.8008399  -0.0472322   0.2635199   0.2276422   0.4125624
  -0.6403876  -1.3818001  -1.7187252   0.1235274  -0.9283296   0.7504708
   0.0131966   0.2153126   0.3776550   1.9946474   0.1766665  -1.0379837
  -0.0046079   0.9999619   0.7917861   0.2810696  -0.2441565   0.1008297
  -0.0074087  -0.2702280   0.1319506  -0.6930883  -0.9026656   0.3399001
   0.2433776   0.0931116  -0.3300975   0.0931236  -0.4580909  -1.7497901
   0.7333509  -0.2258068   1.8956357   0.1928157   0.4195355  -0.1884424
  -0.0232660   0.2193365   0.8490604   1.1339585   1.1749542   0.6100771
  -0.1031721   0.3889802   0.2102619  -0.0035030   0.2351159  -0.0535813
   1.5657598   0.1614833   0.6675732   0.0532443  -0.0691286  -0.1291248
   0.8186101   0.3671293  -0.2356918  -1.9620466  -0.4142406   0.4686791
  -0.0274159  -0.1033307   0.0309979   0.5596611  -0.3800008  -1.3363532
   2.1855910  -0.7470915  -0.1559480  -0.1746092   0.2588118  -0.0040040
  -0.5521122   0.1405543   1.1141003   0.8328837   0.0751733  -0.1699819
  -0.0035516   0.1058898  -0.0069591  -0.8181942  -0.6236826   0.2257510
  -1.0973638   0.5351115  -0.4980921  -0.0791464  -0.0832502  -0.2154544
   0.7951307   0.5049308   0.2942594  -0.4832694  -0.1223615  -0.6606655
   0.1764456  -0.1554960   0.1536327  -1.0166349   0.4370640  -0.7192256
   0.2798932   0.1586496  -0.5699513   0.3374339   0.2244791   0.3042414
   0.8136351   0.4918859  -0.5337395   1.1821475  -0.4298763  -0.1321756
   0.1251301   0.3368007  -0.2187985   0.2891150   0.5940484   0.1707225
  -0.4940529  -0.3463765  -0.1429744   0.0914278  -0.0042475   0.3111632
   0.0247432  -0.5698251   0.8579115  -0.0422851  -1.2008456   0.4552243
   0.1250219  -0.0531194  -0.3921331  -0.8329027  -1.3042374   0.3577362
   0.6500638   0.0989895  -1.1838176   0.2432275   0.1494263   0.1804027
  -0.8053439  -0.9513869  -0.3277376   0.4351452   0.8027179   0.6889865
   0.0040520   0.0280366  -0.0138138  -0.3981532   0.3601404   0.5379295
   1.2975805  -0.3415576   0.4668725   0.0349103   0.2204543  -0.2790132
  -0.5142761  -0.2519236  -0.2834556  -1.0416507  -0.3265356   0.0923477
   0.0504144  -0.0470528  -0.0776083   0.0199784  -0.8010253   0.1145370
   0.0174330   0.1773153  -1.0469929   0.2554976  -0.1641891  -0.1200643
   0.4084711   0.8419059  -0.5498479  -0.2013828  -0.7311102   1.2724330
   0.2840399   0.0544055  -0.1044196   2.0188539  -0.4705774   0.0364610
   0.0293862  -0.7558861   0.3152872  -0.0013307  -0.0793836  -0.0934556
  -0.2598138  -0.1746197  -1.2740318   1.7408763   0.3964710   0.2497779
  -0.5419586   0.1336047   0.1578828   0.1790800   0.4569081   2.1730211
   0.7630573   0.7208692  -1.2783788  -0.0490680   0.0333218  -0.0110480
  -0.3199747   0.3766994  -0.0634942  -0.8869302  -0.6265544  -0.5075335
   0.0665135   0.1613277   0.1671795   0.2559389  -0.1782829   0.0151538
  -1.2266113   0.5823240  -0.0382530  -0.0520466  -0.0229388  -0.0580701
  -0.5553378   0.1969067   0.0189548  -0.5892372  -0.8089209   0.1049693
  -0.2750426   0.0205162   0.0104997   1.0907228  -0.2488731   0.8239279
  -0.5074092   0.1513252  -0.6688784  -0.1045661   0.1587910  -0.1179399
  -0.3946752  -0.5894147  -0.4401585   0.5857169  -0.5988864  -0.7149675
   0.3127414   0.1806007   0.0471824  -1.3054235   0.5484548  -0.7083663
   0.3248973  -1.0113022   0.7503212   0.0259106   0.2723053   0.3056845
   1.4196196   0.9570245  -0.6881591  -0.7914543   0.8791505  -1.1325673
   0.0591529  -0.1998661   0.0623764   0.3430691  -0.6238604  -0.0439540
  -0.5345042  -0.6342797  -0.0123204   0.0599090  -0.1015066  -0.1859716
   0.5229397  -0.7131162   0.4653276  -0.5023701   0.0795506  -0.1316035
  -0.3348974  -0.0223112   0.1385224  -0.6427754   1.5419847   1.0570138
  -1.2832093   0.4850965  -1.4099082  -0.0732528  -0.3232110   0.0671068
   0.8029033  -1.0578240  -1.6407244   0.2071226   0.4326242   0.2080048
  -0.5151516   0.3103274   0.0031268   0.8988593   0.0560126   0.5675727
   0.0962775   0.3431345  -1.2247204  -0.3790503  -0.0708716   0.0790366
  -1.7457079   0.0633236  -0.2797404  -0.7494907  -0.7337125   0.0119426
  -0.1495310   0.1341194  -0.0306693   1.1893387  -0.5702725  -0.8900852
  -0.0259373  -1.0159936  -0.4901372   0.0809077   0.1390247  -0.1168369
   0.3900406   0.2231140  -1.5818391   0.4242033  -0.3831181  -0.1908152
   0.2233327  -0.3844239  -0.1667500   0.1123446   0.1561973   0.1574853
   0.4960137  -0.4648954  -0.1538484  -0.0118077   0.3019835   0.2384459
   0.0002498  -0.1287819  -1.7313466   0.2222597  -2.0607791   1.3525921
  -0.0006947   0.1340368   0.0600977  -1.9459323   0.1259069  -0.5253071
  -1.2800616  -0.8620382   1.2635361  -0.1250913   0.0307199   0.1648497
   0.6454937   0.6204873   1.6667936  -0.8213475   0.4475561  -0.9305185
  -0.2446865   0.3111756   0.2766897   0.8858669  -0.5589342  -0.3654754
  -0.7910624   0.6732332   1.5397859  -0.2772475  -0.0422643  -0.1946495
  -0.9938767  -1.5584570  -0.4616881  -0.1295820  -0.3250032  -1.7207863
   0.1556866   0.4532966   0.0617027   0.8492892  -0.6731831   0.0206242
   0.2212290  -0.3002518   1.0385292  -0.0832905   0.0399309   0.0102139
   1.4003077   0.1323042   1.5587221  -0.6160628   0.5411154   0.5854164
  -0.0299781   0.0586368   0.1754033   0.0577298   0.2880179  -0.2184539
   0.2779531  -0.7586757  -0.3561483   0.0717259   0.1044483  -0.2016415
   0.1919821   1.1120929  -0.7432321   0.4402978   0.3986267   1.5908850
  -0.0649308  -0.0320459   0.0111401   1.3736528  -0.4013429  -0.3195307
   0.6647971  -0.1562211   0.4455399  -0.1061594  -0.1075189   0.1932070
  -1.3021525   0.0992434  -1.6782135   0.9193586  -2.0324411   0.2800581
  -0.1417926  -0.2204430   0.2091661   0.4506110  -0.4314925  -0.0658983
  -0.6333733  -0.0486559   0.9764849  -0.1619477  -0.1864516   0.3336240
  -0.8013996  -0.2567513  -0.3365675  -0.0907657   0.5705745   0.6612509
   0.1163526   0.0272541  -0.1437156  -0.0890948   0.1940136   0.2905529
   0.7840748   1.0498898   0.7520765  -0.2556662   0.0539562  -0.2328090
  -0.5038135   0.0242602  -1.0401934   0.3350079   0.6034827  -0.0025117
  -0.0006589   0.0463553  -0.2137160   0.0525668   0.5530607  -0.5692185
  -0.2536471   1.2206103  -0.9687074  -0.1032795   0.1349249  -0.0677770
  -0.4539111   0.1426467  -0.0938217   0.6143066  -0.1266614  -0.1382349
   0.0293008  -0.4621069  -0.3083050   0.7788988  -1.2973572   0.1832244
  -0.0966598   1.5365765   0.2164202  -0.2933994  -0.2184930   0.2520335
  -0.3819115  -0.7132364   1.3093805  -0.1740566  -1.0450106   1.5271400
   0.0577113   0.0414858   0.0762935  -1.4712222  -0.6445844  -1.1288110
   1.3818196   0.5825970   0.7257876   0.0456885  -0.0700092  -0.2506023
  -1.0945382  -0.3954865  -0.3737666  -0.3565483   1.1826254   0.7507998
  -0.1771751   0.0816719   0.1566569   0.4177497   0.0567600   0.3183070
   0.1329349   1.1555527  -0.3702803  -0.0759177   0.4100381  -0.2226501
   1.2160474  -0.0695203   0.5784187  -2.3252833   0.1099532   0.8296911
   0.2388386  -0.2144399   0.0180153   0.1415006   1.1996087  -0.0260909
   0.6835062   0.1102563  -0.4259721   0.1633783   0.0948121   0.1695093
   0.0962907  -0.1447924  -1.3464905   0.5533286  -0.3336797   1.9300257
  -0.4702689   0.0570949   0.3691185  -0.2135763   0.9594572  -0.8421422
  -0.0222271  -0.8234953  -0.4173648  -0.1456228   0.1972490   0.1837673
  -0.1926092  -0.0098145  -1.3576254  -0.9892386   0.5319391  -0.5725932
   0.0857064  -0.4770951  -0.2696901   1.9376078   0.5349546  -0.8854743
  -0.1903728  -0.3312649   0.0319041   0.0442518  -0.1961421  -0.3400323
  -1.0698773  -0.2444852  -1.2478906  -0.1728853   1.3753468   0.1254851
  -0.0082350   0.0882301  -0.0863943   1.9122308  -0.0731434   0.1222935
  -0.9781085   0.4537707   1.3166827  -0.0846193  -0.0773421  -0.2954543
  -1.2085094   0.0029685  -0.8658099   0.7712530   0.4308400  -0.2813056
  -0.0278640   0.0563295   0.1237162  -0.1179650   0.3660126   0.7190647
  -1.2092361  -0.6114805  -0.4893053  -0.0245093   0.1054646   0.0334265
  -1.0531530  -0.5230860   1.4355040  -1.0614773   0.0620316  -0.6906106
   0.0403864  -0.1720717   0.3064788  -0.4008705   1.4157828  -1.5533713
  -0.0951124  -0.7340557   2.1411912   0.0986296  -0.1685277  -0.2380082
  -0.8950820  -0.2037085  -1.1442951   0.9701324   0.2095408   0.8064329
  -0.1369706   0.3211938  -0.0731825   0.1777254  -0.1179010  -0.2972586
   0.3826920   0.8230746   0.8193640  -0.0711588   0.3253022   0.3355087
  -0.3004061  -0.3610425   0.2889760   1.2535388  -0.8052254   0.9212666
  -0.1298307  -0.2195204  -0.1879949  -1.5337410   0.3113217  -0.1413394
   0.0240950  -0.8121681   0.7053932   0.2908980  -0.4488600  -0.3638547
  -0.9661836   0.6719996   0.2292009   0.3524174   0.2676973  -0.4313477
  -0.0559240  -0.2682132  -0.1113432   0.2584576  -0.3924032  -0.7047974
  -0.8407788   0.1606833   0.0561958   0.2854838   0.2589954  -0.3387527
  -1.4782289  -0.8872977  -0.8203948   0.2609457   0.0451889  -0.3975666
  -0.0118904   0.0664019  -0.1029250  -2.0410140  -0.5395510  -1.0314974
  -0.4556498  -0.7337586  -0.4831217   0.0485267  -0.0790288  -0.0753693
  -0.4388377   0.7975205  -0.7496683  -0.0457445  -1.8873454   0.7840691
   0.0382381  -0.0091020   0.0674676   1.8029660  -1.1643254  -0.0134707
   0.8598946  -1.4883057  -0.0820502   0.2996933  -0.2404276   0.3865135
   0.3222442  -1.4930106   1.6018019  -0.6041203   0.6452252   0.4959136
   0.2071100   0.0885158  -0.1820056   0.1438408  -0.0334763  -0.8576787
   0.7709167   0.5337524   0.0132558  -0.1290055  -0.1227689   0.2529662
   0.6074710  -1.4871377  -0.4938018  -0.1583424  -0.7943573  -0.1521844
  -0.2614752  -0.1555792  -0.2969437  -1.4772133   0.5895923   1.1047314
   0.8747211   1.0598540  -1.3581358  -0.2696043   0.2667312   0.0863424
   0.1666782  -0.8809164  -0.5966591   0.2249454   0.8584281  -0.2880549
   0.1839888   0.2654022  -0.2748965   1.3280129  -1.0453362  -1.5880063
  -0.8678968  -0.7144496   0.9278989  -0.2018373  -0.1907601   0.1165218
   1.0528196  -0.9280882  -0.2537550  -0.4935126   1.6189314  -1.0006583
  -0.2135655   0.0611559  -0.2649984  -1.2435279  -0.3518373  -0.9537663
   0.7356479   1.5968275  -0.0470646   0.2182119  -0.3237941   0.2971128
  -0.3539399  -0.1342103   0.7045464  -0.0204985   0.3888651  -1.1151714
  -0.0285637   0.3605605  -0.1081223  -0.2313025   0.6543744  -0.8756763
  -1.0993500  -0.5197768   0.4450580  -0.1185103  -0.1631341   0.0210309
   0.0823014  -0.3295997  -0.4028177  -0.3808924  -0.4328542  -0.3970508
   0.1812364  -0.2959646   0.3554473  -0.4692337  -0.5333886  -0.6885386
   0.1570602  -1.0914654  -0.4622976  -0.0550115   0.3507752   0.1321252
   1.6054962   0.1030981   1.1992726  -0.0822329  -0.0033026  -0.4280061
  -0.0656230   0.1559658  -0.1009865   0.6923864   0.3564384  -0.5042005
  -0.2085862  -0.2148101   0.8697338   0.1528080  -0.0837941  -0.0255490
  -0.1382970  -0.5780600   0.0479537  -0.4817875  -0.3201756   0.5995935
   0.0134081   0.0540160   0.1678892  -0.4931229  -0.5796043   0.0904270
   0.9571403   0.8048712   0.0063169   0.0115083  -0.1930087  -0.0906895
  -0.8243376  -0.3051065   0.6635562   0.4538532  -0.6439019   0.1541711
   0.0805388  -0.0503602   0.1060741   0.3580802   0.3029388  -0.2525123
  -0.2607944  -1.6857204  -0.9175072   0.2099278  -0.2231436  -0.0147857
   1.1178038   0.7652360  -0.4706433   0.3445241   0.8063426  -0.2873380
  -0.0256793  -0.1491063   0.0719399   0.1629211  -0.2878020   0.8676866
   0.2019774   0.7970127   2.0829182   0.4498180  -0.0429131  -0.0944571
   0.6206393  -0.0943070  -0.8336290  -0.8081105   0.4694876   0.6769520
  -0.1744347  -0.0553677   0.0320620  -0.7523640  -0.6336203   0.0362201
  -1.1847254   0.2237230   1.6348271   0.0705030  -0.1194872  -0.0705214
   1.8259752   0.0947246   0.9478585  -0.5874791  -0.1531211  -0.1843140
   0.1083055   0.3496275   0.0671630  -0.7139494  -0.6102737  -0.5091284
   0.4578665  -0.1035921   1.7236631   0.0671003  -0.3453870  -0.1152529
  -0.9316809  -0.8163378  -1.3444020   0.3090545  -0.9551808  -0.9736087
  -0.1869764   0.2154135   0.0620861  -0.9054394  -0.8749375  -0.8209068
   0.3524949   0.3663462   0.5079696   0.1466963   0.1649431  -0.0353696
  -0.6596803  -0.6148450   0.5712305   0.8990003   0.0767163  -0.8216032
   0.3159632  -0.1446784   0.5372722  -0.9274570  -1.5745226   0.3405333
  -0.1020520  -0.3185372  -0.1718809  -0.1942624  -0.1907386   0.2726701
   0.7601335   1.7736353  -1.4890131   0.2079692   1.2532467  -0.2029740
  -0.2379974  -0.2706442  -0.1105351  -0.2024634  -0.1494170   0.3429854
  -0.5884339   0.6616557   1.0074531   0.3147195  -0.0327086   0.1305441
   0.9634396   1.2658249   0.2089523   2.1835654  -0.1306973  -0.2773508
   0.1451640  -0.1816843  -0.0387140   0.6497101  -0.0159022  -0.8237567
   0.5557212   0.4130927   0.9166989   0.0715041   0.0552371  -0.3541758
   0.7328689  -0.4755555  -0.9841298  -0.6704173   0.2801378  -0.8118440
  -0.0237105  -0.0642425   0.1164636   0.0735035  -1.2541511  -0.3782806
  -0.0104385   0.2540354  -0.5683906  -0.0302045   0.2341195  -0.2354870
   0.0508452   0.8121116  -1.3506044  -0.0106680  -0.3034540   0.1661801
   0.1305290  -0.0003599  -0.1717958  -1.3322835  -0.1996584  -0.0703186
   1.6001208   0.6040518  -1.0260197   0.1326513  -0.2776318  -0.2114193
   0.2882580   0.1812486  -0.3896320   0.3200387   0.2621119   0.3238153
  -0.1608793   0.4690274  -0.1941084  -0.6245908  -0.9293259  -0.2687451
  -0.7802351   1.2052608   1.4691366  -0.0539384   0.0594179  -0.0492846
   0.8541784   0.3377252  -0.7514540   1.1930482  -0.4125781   0.2318300
   0.1237206   0.0545255  -0.0506591  -1.2080328   1.0623598   0.1370775
   1.1282359  -0.3915386  -0.1635371  -0.0613695  -0.3629312   0.0250365
  -0.6957934  -0.2790945   0.4778466   0.8516130  -1.0815138  -1.9093696
  -0.0950485  -0.0779188  -0.1462730   1.5828197   0.7176350  -0.1295362
  -0.0073437   1.3221239   1.2418287  -0.2073309  -0.3734325  -0.0378140
  -1.4502842   0.1691369   0.5095197   0.4869483  -0.6410696   0.4915609
  -0.0918482   0.1900495  -0.0552611   0.3145866   0.5595325   0.2787631
  -1.0238934  -0.0266831   1.0214481   0.2185954  -0.0538322  -0.1920749
  -0.4393817   0.1198737  -0.4935345   0.5536081  -0.3245647  -0.4201618
  -0.2332125  -0.1072299  -0.0523620  -0.0219751  -0.7017981   0.2181499
  -1.3052371   1.4337560   1.1518859  -0.0098763  -0.0397939  -0.3329991
  -0.8978219  -0.4710818  -0.2106980  -0.6914029  -0.8254435   1.2303691
   0.2205729   0.0674051   0.1566642  -0.2005164   0.6187255  -0.5652859
  -0.9969041   0.2640874   0.7015011  -0.1954317   0.0215243  -0.1979375
  -1.2214851  -0.3730005  -2.1739159   1.2991910  -0.1207499   2.0639780
   0.3768493  -0.1588713  -0.0022753   0.4937179   1.5088251  -0.9664336
   1.2238855  -0.3621301   1.2529809   0.0094424   0.2062079  -0.0525038
  -0.2843156  -0.7986194  -0.0375180   0.0719560   0.6833215  -0.0812328
  -0.4290881   0.2225412   0.3179967   0.4645690   0.5035667  -0.0930299
  -0.3418143   0.8508539  -0.6060576  -0.0822578   0.1712465   0.1412550
   0.8943116   0.7812479   0.1639600   0.9324236  -2.0316434   0.4765194
  -0.2013043  -0.3385239   0.0462492   0.5786457   0.8732169  -0.6108287
  -0.2869632   1.0181700   0.8873688   0.3048799  -0.0082493   0.0342214
   0.3760205  -0.1472160  -2.1561975  -0.5864458  -1.2142811   0.4998532
   0.0465181   0.1236355   0.0780574   0.0287259  -1.1672841  -0.0666348
   0.9946167   0.1157509   0.0057777   0.0226314  -0.0905184   0.2580185
  -0.0829535   0.0369220  -0.3593833  -0.6834717  -0.1393074  -1.8895414
   0.1040256   0.3199398   0.0033056   0.8445529  -0.8939369   0.0294849
  -0.2393705  -1.7209209  -0.1906894  -0.1298875   0.1214893   0.0046201
  -0.6835072   0.5768102   1.3596292  -0.0166212  -0.2531128  -0.8471637
  -0.3150716  -0.0006239   0.0056801  -0.2105564   1.0932660   0.8623362
  -0.5023999   0.0781807  -1.0714651  -0.1080626  -0.1147197   0.3023019
   0.8645502  -0.0403571   0.7158256   0.3346139  -0.3502482  -0.5776460
   0.0493838  -0.1117106  -0.1674689  -1.5673934  -0.0582302  -0.8198858
   0.6849123   1.1415929   0.7010016   0.0075830  -0.1423483   0.3108374
   0.5307367  -0.8620102   1.0935981  -0.4787937  -0.0242006   0.5268497
   0.0434268   0.1258103  -0.0147319   0.3118051   0.7706435  -0.1757935
   0.8218239  -0.9874662   0.7184822  -0.0242307   0.2396907  -0.0488982
  -0.4782069   0.3534514  -1.3606861   1.0945544   1.1149504  -0.4060064
  -0.1684694   0.0572833   0.4577650  -0.5140914  -0.2045945   1.5015815
  -0.3813331  -0.5629473  -1.9165900   0.1384546  -0.2917959   0.0843997
   0.2893980   0.6758037   0.0982511  -0.7356548   0.4518619  -0.6118085
   0.1654104   0.1198035   0.1209829   0.0828231   0.2143574  -1.0198464
   0.2690845  -0.1545514   0.6237544  -0.0921031   0.2156968  -0.0402964
   1.4931904  -1.7918316   0.5097644   0.1774105   0.1917207   0.6098896
  -0.2057239  -0.3116763  -0.1233808  -0.3885511  -0.1575522  -0.5325860
   0.2944521  -0.9524208  -1.4027997   0.2561327  -0.0443321   0.2915837
  -0.5632282  -0.5831040   0.0847278  -0.4607807   1.1634390  -0.5948681
  -0.1751375  -0.1557187  -0.1890234  -1.2290037   0.1693471   0.8585910
  -0.1930829   0.6513594  -0.5477107   0.2730459  -0.0647064  -0.2709175
   1.7943614  -0.3196709   0.0776919  -1.6380397   0.6653220  -1.1975850
   0.4090154   0.0792057   0.0352086  -0.3310342  -1.3797653  -0.8752622
  -0.8182808   1.0143242   1.1242183  -0.0147582   0.1837982  -0.0921895
   0.6726544   0.3152742  -0.9773158  -0.3333623  -0.2226520   1.2881938
   0.1759148  -0.1510794   0.0365641   1.2184925   0.9346598   0.7096484
   0.0548147  -1.0306655  -0.8580835  -0.2073343   0.3304109  -0.0873952
   0.2348894  -0.9989433  -0.4694808   1.3833516  -0.6304820  -1.0496573
   0.1938508  -0.0522026  -0.2520382   0.8657288  -0.1549376   0.3052602
  -0.4647298  -0.5441405   0.4028826   0.0693199   0.2508125  -0.2555935
  -0.1586396   0.2476078   0.9634337  -0.6116613   0.2164628   0.8661863
   0.4090471  -0.0083766   0.1493013   1.0074900  -0.3306587   0.3440765
   0.2858977  -1.3511287   0.8445830   0.0461553  -0.1325924  -0.0736404
  -0.0543927  -0.9672201  -0.2846745  -0.6646149  -1.1889697  -0.9772430
  -0.3090155   0.0872210  -0.2527299  -0.2599685  -0.3388405  -1.0720007
   0.2004959   1.1881381   1.2995275   0.1477539   0.3272590  -0.0600346
  -0.3463081  -0.8883743   0.1561077  -1.0130141   1.6201928   0.8847328
   0.2195093  -0.2073579  -0.0280595  -0.3974886  -0.7534947  -0.0657516
   1.1456915   1.9528507   0.2897612   0.1538376  -0.1628071   0.0717545
   2.0783939  -0.9158617  -0.2064427  -1.5050972  -1.3089185  -0.2011130
  -0.0629263  -0.0916630   0.1421246  -0.5921662   0.7137413  -0.8572952
   0.8256482  -0.2522359   0.3112154   0.0506921   0.3248172  -0.1152972
  -0.1031894  -0.4993657   0.9208549  -0.1537669   0.4459085   0.5495919
   0.3152687   0.1100758   0.0255267   0.1610070  -1.2833811   0.6207547
  -0.8772634  -0.9898864  -0.7268244   0.0657696   0.3563983   0.0458292
  -1.3071949   0.2618072   0.0525045  -0.9908754  -0.3838097   0.3926080
   0.1113913   0.0946172   0.0268371  -0.6252879  -1.0496814   1.3016591
  -0.9688289  -0.0186286   0.0696236   0.1664187   0.0739766  -0.1513860
   0.2044986   0.8106917   0.7100208  -0.4844392  -0.7058815   0.8096654
   0.1822711  -0.2562155  -0.1158953  -0.5938303   1.7022430  -1.4616749
  -0.7012420   0.7036762  -0.3304550   0.2268234   0.0493409  -0.0972038
   1.3117101   0.2264490   0.9973566   0.5755526   1.4687656   0.0005592
   0.0218028  -0.0914208  -0.1545063  -0.4588901   0.0944998  -0.7788729
   0.3006624  -0.8455243   1.1284688   0.3926733   0.1843843   0.0395115
   2.2717507  -0.0853139  -0.2648910  -0.4965612   0.7404958   0.9386036
   0.4463746  -0.1175327  -0.0222685   0.3865888   0.9060788   0.3258998
  -0.5297791   0.5569701  -0.3075446  -0.3215627  -0.0784222   0.0079498
   0.5229813  -0.5966818   1.2687225  -1.2724605  -0.6200643  -0.4757358
   0.0975867  -0.1021247  -0.3641324  -0.6171100  -0.5850865   0.1805467
  -1.8922082   2.7753532   0.5408545   0.1849690   0.2455490  -0.0204765
   1.3339942  -0.7475891   0.2922221   0.4236489   0.2285882   2.2540689
  -0.0236067  -0.1108696  -0.2102259  -0.6629307  -0.2237799   0.2027229
  -0.4687099  -0.2388946   0.5477963  -0.0708152   0.3201026  -0.0680253
   0.2562411  -0.6006979   0.4262279   0.1527070  -0.6090199  -0.0815197
  -0.3274816  -0.1209177   0.3488723  -0.9107136   0.6617478  -0.3151437
  -0.6501247   0.5602149   1.0623233   0.3042292  -0.1354855   0.0130309
  -0.0180481  -1.0931555  -0.0945652  -0.1305910   1.1347933   2.1495345
   0.2713065  -0.0385414   0.0400065  -0.1618664  -0.2257054  -0.3330618
   0.2598204  -0.8115473   0.4135562  -0.0213689  -0.2424700  -0.0146057
  -1.8226515   0.1409521   0.2928316   1.4036509   0.1681964  -0.0298385
  -0.0734115  -0.1840207   0.1644239   0.1171207   0.8132726   0.0556666
  -0.2023913  -0.6607898  -0.8144900  -0.1209840   0.0626859  -0.0911223
  -1.0265412  -0.6640419   0.6822159   0.2219848  -0.0426034   0.1324217
  -0.2897190   0.1459020   0.2106783   0.4404416   0.9075833   0.3240635
   0.2389400   0.9822249   1.6198523  -0.0450501  -0.0527105  -0.0514410
   0.7379419   0.7169283  -0.2988526  -0.4868258  -0.6378329   0.1774309
   0.2563459   0.1161080  -0.2790376  -0.7305419   0.2881999   0.0251152
  -0.1251244  -1.8490254   2.0814691  -0.1822962  -0.0326961  -0.0584954
   0.7968676   0.9621135  -0.4270186  -0.9307163  -0.2602604   0.2229422
  -0.2088461   0.1471291   0.2343818   0.3444474  -0.5540824   0.7847108
  -1.0511372  -1.8664590  -0.2176000  -0.2702425  -0.1430293  -0.2583418
   0.9372310   1.4240234  -0.1562657   0.2611783   0.6124524   0.8604782
   0.0595172  -0.2686411  -0.0611375  -0.3530677  -0.7925196  -0.2424773
  -0.3898676   1.3037639   0.6655045  -0.0639730  -0.0379550   0.1146254
  -0.6379593  -0.6156687   0.3155792  -0.2909849  -0.9201741   0.6234811
  -0.2876805   0.1410890  -0.3149611  -0.1012967  -0.4424043  -0.0941539
  -0.7639830  -1.4839456  -0.1375766   0.0170236   0.2075468   0.1738259
  -1.3906045   0.0603238  -0.5511953  -1.3708339   0.1131079   0.8051665
  -0.1559988  -0.0147915   0.0185315  -0.6306076   0.0662688  -0.1403926
  -0.2037771   0.4201408   1.4964288   0.1507667   0.2189140   0.3651611
  -0.0591288   0.0782068  -0.8165801   1.6060259  -0.7735129   1.0188510
  -0.0027965  -0.1685344  -0.0275891   0.4768946   0.7313656  -0.4724709
  -0.6167881   1.5083865   1.4243362   0.0727279   0.1685146   0.0630693
   0.9169779   0.4117138   1.0435755  -1.3983840  -0.9416008   0.4462587
   0.3003817  -0.2592757   0.3014278  -0.2636202  -0.2850775  -0.6756337
   0.5175945  -0.7277842   0.3807644  -0.0073408   0.0018787  -0.3650316
  -0.3071925  -0.2132249   0.2866077   0.0453937  -0.3732904   1.2634201
  -0.1822534  -0.0645367  -0.0798775  -2.0736296  -2.0800314  -1.4726125
   0.6843979  -2.0321958   0.2513263  -0.2919112  -0.0208808   0.5052364
   0.3411822  -0.4018434  -0.0985743  -0.8805095  -0.6532802  -1.0092144
  -0.2993217  -0.0427977   0.3403948  -1.0077484  -0.8727324  -1.6994210
   0.6048275   0.8872101   0.7695141  -0.0620216  -0.1787244  -0.1691712
  -0.3410379   0.5244281  -0.5753489  -0.5767221  -0.6902618   0.7580186
   0.0920699  -0.0085407  -0.1008788   0.4413592   0.1873440   0.2536060
   1.3147908  -0.2329659  -1.1899812   0.1722583  -0.1232357  -0.2677404
  -0.3804490   1.6315532   0.6363809   0.6083033  -1.2635615  -1.2719127
   0.0902132  -0.2438049  -0.0693919   0.6126665   0.1063358   1.8009295
  -0.0340825   1.0422887  -0.5194761  -0.0054956   0.2987018   0.0549835
   0.0555315  -0.5432891   0.7838169  -0.0598240   1.3243448   0.3921378
   0.2784420  -0.1958892  -0.3866334   0.0006018  -1.1296179  -0.0748248
   1.4581866   1.0372840   0.6871895  -0.2131742   0.0479455  -0.0475060
  -0.6298239  -0.2280312  -1.2803745   1.5660158   0.6041980   0.3789944
  -0.1719180   0.2373779   0.3621441   1.3226568  -1.2419122   0.6060833
   0.0018099  -1.6743277   0.2699381   0.2341879   0.0341350   0.2127271
   0.0140062   0.8225954  -0.9253029   0.9496874   0.5695715   1.6537156
  -0.2175758  -0.1137781   0.1976546   0.0334451  -0.3690690   0.0543254
   0.1528419  -0.3626165  -0.0569115   0.0185250  -0.0158401   0.2372003
   2.1355648   0.1190248  -0.8551913   0.4057861  -0.8384399  -1.1694355
   0.0801884   0.3036947   0.1563910   0.2463666   0.9614182   0.8190291
   1.2122604  -0.6659655  -1.6040711  -0.1494236  -0.0293808   0.1698177
  -0.8514404   0.2600636   0.0937973  -0.9619125  -2.3751194  -1.2745987
  -0.0075806   0.0384744  -0.1036380   1.1351701   1.2346267   0.4885680
   0.8658507  -0.1800820  -0.2647903   0.0538573  -0.1734690   0.2236760
  -1.0074475  -0.2370147  -0.7536690   1.2840480   0.1154176  -0.6133912
   0.6892285   0.1061929   0.0390945  -0.2524969   0.9654496  -0.4977409
   0.9095456   0.1887902  -0.2536772   0.0237731   0.0387219  -0.1673167
   0.4377717   0.4202102  -0.2466706   0.4959773   0.5688517  -0.0994896
   0.0614625  -0.0989310  -0.0440816  -1.0578412  -1.2447212  -1.4653885
   0.5993100   0.7429434  -0.7476774  -0.2704337  -0.1336201   0.0520185
   1.2443261   0.8672689  -0.4002233   0.6622477   0.1748214  -0.3305921
  -0.0512971  -0.0874564   0.3277306   0.3098232   0.5706709  -0.6790093
   0.1955199  -0.2245685   0.6720463  -0.1594998  -0.0277238   0.3919393
   0.0710176   0.8275028  -0.4521449   0.4353019   0.9499124  -0.0953243
  -0.2824309   0.2207364   0.1181434  -1.0376563  -0.2606065   1.4531274
  -0.2148264   0.0573486   0.3302201   0.1544102  -0.2016765  -0.2644788
  -0.6247882   0.6743625  -0.3391763   0.5806324  -0.8687137  -0.4898976
   0.3880667  -0.1363616   0.0386468  -1.3059266   1.5457745   0.3387663
  -0.5273569  -1.2862008   0.7057934  -0.1386966   0.1389207   0.3821574
   0.8563086  -0.7079540   1.4223818  -0.5548355  -0.3954736   0.5511064
   0.1396329  -0.0089806   0.3845237  -0.2263579   1.2732184   0.0852988
  -0.9089646   0.1796003  -1.5977447   0.0152596   0.1012577   0.0197252
   0.4711239   0.6940907  -0.3120221  -0.8340124  -0.1203094  -0.1834400
   0.0267544  -0.1359414   0.1472277   1.2934417   0.1533448   0.0944088
   0.4107534   0.3069282   0.6380337   0.4300446   0.3474711  -0.0610939
  -1.8019396  -0.3660769   1.3095558  -1.4961461  -0.9351009   0.6889628
   0.1892888  -0.2306708  -0.1463840   0.1562807  -1.6834407  -0.2328755
   0.3962716   0.9675463   0.7079925  -0.0094093   0.3265995  -0.4764498
   0.9421487  -0.8159602  -0.1686455  -0.4995860   0.9989541  -1.2741822
   0.3823285  -0.1424324   0.0642417   0.0364999   0.2642590   0.5895197
   0.8939121  -0.1790403  -0.3266903   0.1301985  -0.0314673   0.0719694
  -0.8525533   0.7688485   0.0329108  -1.1629676  -0.5936462   1.1813238
  -0.2414814   0.1425892   0.2182081  -0.1589879  -0.2248125   1.4691176
   0.9098660  -0.0390637  -0.5661758  -0.1704457   0.1877426   0.0600960
   0.5276661   0.3063532   0.1576516   0.0918831   0.0336094   0.9377462
  -0.2016794  -0.0743253  -0.1615968  -0.2040434  -0.2839153  -0.5144637
  -0.2351601   0.8719570   0.1714164   0.1650181   0.1231055  -0.1170092
  -0.8023828  -0.7215249  -1.2286768  -0.7853484   1.2304671   0.0546847
   0.0519430  -0.2295558   0.2841313  -0.2284276  -1.3128775  -0.2702584
   1.5512043   1.6240788   0.8141240  -0.0013756  -0.2979349  -0.1582254
  -0.7637324  -0.5644308   0.7589041   0.5154567  -0.3116663  -0.1267186
   0.5143734  -0.1878343   0.1506653   0.0312325  -1.2853334   0.8340521
  -0.5625275   2.5579891  -0.5992514   0.0942723  -0.0389954  -0.3727129
   0.9890330   0.2937289   1.1504283  -0.1306654   0.7300026  -0.5020461
  -0.1771554  -0.0155609  -0.1111028   0.5117633  -0.2808550  -0.2414195
   0.2037966  -1.7245421   0.6902409   0.1591351  -0.1510415   0.1885430
  -0.7304869  -0.2137613   1.2773042   0.9828753  -0.0554422   0.1426082
   0.2261933  -0.2900036  -0.0257192  -0.0521379  -0.2509223  -0.4862328
   0.5382091   0.2202656   0.3469554  -0.0111475  -0.0799960  -0.0444670
  -0.7669005  -1.4167962  -0.5101893  -1.6368378  -0.2460656  -1.3036162
   0.1742259   0.2109364   0.3164943   0.4020484   1.4940666   0.3095184
  -0.7177826   0.1769429  -1.1778712  -0.1240331  -0.0049028  -0.0280512
  -0.4274445   1.0209796   0.0121516  -0.0695124   0.5070700  -0.9373395
   0.1596912   0.1743620  -0.0379863  -0.8260139  -0.0709324  -0.6854622
  -0.1532019   1.7762781  -1.1015140   0.2069649  -0.0712721   0.0006608
  -0.9880393  -0.1308727   0.1100559   0.7150816   0.7364084   1.0436878
   0.0432481  -0.2568663   0.1807433  -0.7430444   0.1612846  -0.6280838
  -0.3621320  -0.9275052  -1.0104929   0.0389373   0.2716850   0.0560326
   0.9736637  -0.7255685   0.1763910  -0.5577354  -0.6494103  -0.2795183
   0.4234078  -0.1927290  -0.0164353   0.5371083  -0.2145277  -1.3035926
   1.2740539   0.6184849  -0.6814321  -0.0237288   0.0120421  -0.1839028
   0.2071750   0.1204249  -0.2714184  -0.2585816   0.2170009   0.0933894
   0.1667946   0.1816923   0.2572764   0.7637625   2.2395117  -0.3574650
   0.2313602  -0.1250567  -1.1556741  -0.0304097   0.0736773  -0.0084166
  -1.2010379   0.1264964  -1.2701691   0.7263025   0.5980296   0.2245123
  -0.1289918  -0.0593840   0.0123569  -1.1846923  -0.3024769   0.0833005
   0.5757467   0.2575813  -1.4375242  -0.0875067   0.1393280   0.2177666
   0.8837497   0.0770691   0.7391433  -0.4050154  -0.1044086  -0.0935178
  -0.0871771  -0.0554780  -0.0930366   0.6201982  -0.0559849  -1.1628387
  -0.3769977  -0.8563986   0.8647556  -0.1090991  -0.1005762   0.2060743
   0.0372005   0.3435865   0.6024719  -0.9493157  -1.4223918   0.3087101
   0.0252662   0.3425477  -0.0872907   0.7092471   0.6776519  -0.5709878
   0.2894132  -0.6221643  -0.3923163  -0.1508804  -0.1124239   0.2103415
   1.0308293   0.4744474   0.4029343   0.0138764   0.1588027  -1.2087451
  -0.0965461   0.0239558   0.0122189   0.7884418  -0.7668210  -0.5468650
  -0.2994262  -0.2829520   0.6887953   0.0457610   0.0733654  -0.0656778
   0.1868807   0.9514441  -1.0188026   0.2364221  -1.5074587   0.7341347
   0.1211003   0.0930790  -0.0417763  -0.3572716   0.3912093  -0.6838984
   0.9437285   2.0097244   0.0732209  -0.1882715   0.4502321   0.3151544
  -0.0926269  -0.8824804   0.6941263   1.6944093  -0.1103817   0.0666911
  -0.1692642   0.2538703   0.3011523  -0.2991299   1.2470964  -0.5660655
  -1.4474134   0.1284237   0.8488685   0.2181459   0.2060452   0.2919359
   0.6356931  -0.9018254  -1.4836193   1.4417036  -0.6410366   0.4112037
  -0.0096437  -0.0802108  -0.1499718  -1.1768641   1.9726007  -0.6647469
  -0.8649743  -0.9800329   1.1292671   0.0757227  -0.3298923   0.1372875
   0.8152314  -1.5447308   0.2769009  -0.1807013   0.2565138  -1.1572648
   0.2383016   0.0304471   0.2070450  -0.3719552   0.8796721  -0.3182695
   1.1493164   0.1102098   0.5882562   0.0411613  -0.1647376   0.5780984
   0.2051862  -0.0971090  -0.3377087   1.1291119  -0.0065554  -0.6154732
   0.1170472  -0.4039439   0.3012988  -1.0675087   0.6698418  -1.0341177
  -0.5768868  -1.0129559   0.9056110   0.0654151  -0.0540159  -0.0157300
  -0.5925735  -1.2618529  -0.7451911  -0.2462864   0.1736735  -0.1925040
   0.2196486  -0.0551996   0.0895080  -0.0320495   0.0661680  -0.3993075
  -1.2299305  -1.2262949  -0.3094819   0.3012279  -0.0797204   0.2556328
  -0.9734986   0.5313945   0.8026397  -0.4843617   0.3733710   0.5184538
  -0.2258368   0.0859525   0.2859240   0.2743084   0.6396871   0.1677322
  -1.0994214  -0.2420841  -0.1237789   0.1500486  -0.0489829   0.1267215
   0.8922775  -0.7999389  -0.0779440  -0.4776140   1.5298536  -0.9046005
  -0.0977790  -0.0122969  -0.0987632  -0.4906882  -0.1859761   0.0023013
  -0.4270877  -1.5764508   0.9756337   0.0146221   0.1996331   0.0048780
  -0.0419402  -0.0376190   0.9701277   0.7926744  -0.7947022   0.0201704
  -0.2096624   0.1483922   0.2075349  -0.2925756   1.4089923  -0.2813664
   0.3020391   1.6265413   1.3661578   0.0170227   0.5626709   0.0175151
   0.1068009  -0.5060915   1.2064943  -0.1721150  -0.1413875  -0.1001175
   0.0590913   0.0090115   0.3581965  -0.6003196   1.0188366  -0.5093253
   0.9168803  -0.7194011   0.8963324   0.3331374  -0.1583501  -0.0353514
   1.1468711   0.0393825  -0.0726529   1.6667737   0.7862340  -1.0743906
  -0.1503471  -0.1987105  -0.1048545  -0.5844466   0.9439722  -0.0006553
   0.0033769   0.2075752  -0.5691717   0.3177975   0.4404333  -0.0873124
  -0.3785599   0.2093837  -1.2042471  -0.3018069  -0.0882482  -0.0607226
  -0.1393941  -0.2916203  -0.2306872   0.5151475   0.6314356  -0.0204506
   0.5858169  -0.2175118  -0.5242155  -0.0746762  -0.0037989   0.0860003
  -0.9845805   0.1973680   0.3239902  -0.2273873  -1.0161519   0.1885321
  -0.0809739   0.1398048  -0.3140571   1.2893225  -1.2673934  -1.1870003
  -1.1886482  -0.6744488   2.8907599  -0.2335544  -0.1896618  -0.2380714
   0.5111187  -0.3311291  -1.1287537  -0.4473764   0.6001972   0.2591398
  -0.1092952   0.0569404  -0.2124689  -2.0073762   0.2228315  -0.5643288
   0.2545340  -0.3649324   0.4368119   0.2817088   0.1923058   0.2207173
   1.1022099   0.4407286  -0.6825799  -0.7938426  -0.2877829   0.1008807
  -0.2117847   0.1511552  -0.0242898  -0.7139640  -0.3104148   0.1851254
   0.5761907   0.7337167   0.1183083  -0.1474728   0.0139902   0.0360257
   0.8151760   1.4852518   0.5768321   0.1914050   0.8371165  -0.1024067
   0.3217668   0.4038180   0.1014576  -0.4545512  -0.6305967   0.1077456
  -0.3704875  -0.7351192  -0.2240314  -0.1987550   0.0328350  -0.0950577
  -1.3135005  -0.9069894  -0.8040760  -0.6488135  -1.1021521  -0.3882146
  -0.1133330  -0.1251893  -0.1020812   1.6302046  -1.1400423   0.0047600
   0.0635259  -0.6444569   1.7045444  -0.0101191  -0.1951881   0.2261955
   0.7979125   0.4194421   0.2720670  -1.4844291  -1.4761679  -0.4031511
   0.0513352  -0.3440861   0.0737097   0.0714863  -0.1863088   1.6064792
   0.9323815  -0.8602691  -0.8067389  -0.0011681  -0.0549425   0.0967229
  -0.1989909   0.1813428  -2.0294788  -1.3218369   0.5571130  -0.0184397
   0.1363464  -0.0595540   0.0032914  -0.5001212  -0.3581398  -0.3613234
  -1.2708861   0.8151724   0.8013277  -0.0050404   0.0608158   0.1654958
   0.3546277  -0.5484849  -1.5507536   0.7781767   0.5793381   0.9837662
   0.0157333   0.2196174  -0.1310300  -0.6097374  -0.4221155   0.8895339
   0.3572207  -1.0486463   0.7129602  -0.1318769  -0.0658925   0.0183636
  -1.0972729   0.3299387   0.3364921   1.8315744  -1.1063870   0.7977700
  -0.1665562   0.0259889   0.0779415  -0.1761517   0.0426024   0.7706403
   0.2850141  -1.0364021  -0.4590853  -0.1820813  -0.1747137   0.1311499
  -0.0783302  -0.1602447   0.5127633   1.3619931  -0.5703309   0.1936683
  -0.2250632   0.1517233  -0.0512740   0.3814214  -1.2163748  -0.8590596
   0.5592493   1.7477474   0.2488690  -0.3710301  -0.1845520   0.1199868
   0.9128004   1.3477830  -1.0275687   0.9736800   0.2972031   0.0478427
   0.2139787   0.0088775   0.1814160   0.2391889  -1.4223120   0.8656260
  -1.6462219   0.4062511  -0.8732286  -0.2220740   0.1059035  -0.0493374
  -1.0763839  -0.0890250  -0.9442813  -0.1675544   0.9175263   0.4719257
  -0.2433621   0.2407313  -0.1337906   0.7853271   0.0732556   0.8767875
   0.4468600   0.7502457   0.3795920   0.1723579   0.0077155   0.2756833
  -0.6313539  -0.3064257  -0.1450166  -0.3145127   0.2351134   0.1332316
   0.0284037  -0.0765915  -0.2973567   1.2665632   0.9359736   0.2560721
   0.6397646   0.9604365   0.1146426   0.3354146   0.0523409  -0.0427741
  -0.7109208   0.9062859  -0.2605124  -0.0234155   0.3966115  -0.4324858
   0.0439891   0.2574929   0.1433074  -0.3045006   0.7381244   0.7815574
  -1.2851168  -0.3657912  -0.1909803  -0.1772963   0.0077566  -0.6004910
   1.2191687  -0.4013117   0.5829443  -0.4831686  -0.3818234   0.2540368
  -0.2134399  -0.1097651  -0.1170664   0.1842442   0.5891165   0.1485273
  -0.3010326  -0.9191418  -0.0917931  -0.1654936  -0.0735825   0.2696952
  -1.5913067  -0.2475850   0.9805976  -0.4654524  -0.5881383   0.1338777
   0.3597565  -0.1974825  -0.2048219   0.1513450   0.9854330  -1.0155945
  -0.2885871  -1.2759652   0.1678946  -0.2196876  -0.1445126  -0.0497750
  -1.2177353  -1.5183082   0.3587741  -1.1750773   0.3769028   0.5909577
  -0.0874219  -0.1782245  -0.1524897  -0.0352027  -0.2748968  -1.3548509
   0.7444695  -1.1390699   0.0133507   0.0548393   0.0613071  -0.1106429
   0.2186799   1.0738423  -0.4903622   0.0274444  -0.2702871  -1.2780032
   0.0910880  -0.0946740   0.3610022   0.0737093  -0.5691121   0.9305017
   0.0695887   0.0384878   0.6431022  -0.0149618  -0.0254698   0.0784111
  -1.9837031   1.3554567  -0.7275833  -0.5141975  -0.8508024   0.3675765
   0.2046084  -0.1137872   0.4382917  -0.2045241   0.6606012   0.9831055
   1.1528537  -0.8855855   0.4568241   0.2026555   0.3009982  -0.1391438
   0.8651244   0.2649208  -0.2988426   0.8584905  -1.1505492   0.3618306
   0.1071717  -0.0794196  -0.2177708  -0.3673226  -1.1811783   0.8165208
  -0.5898102  -0.1692670  -0.4091195  -0.3285949  -0.0367808  -0.2160327
  -0.9167421  -1.0456396   1.5165565   0.1623935  -0.1262161  -0.1926694
   0.3000686   0.2787144  -0.2957056   0.5308872   0.0390696   0.0414786
  -1.2309126   0.8563386   0.5843468   0.0031971  -0.2136783  -0.0657014
   0.3170397   0.5538958  -0.5855777   0.4776794   0.4588064   1.4421507
   0.2351311   0.1102226   0.1499017   0.7312984   1.1589749  -0.3963588
   0.1201742  -0.7795919  -0.4139354   0.2168050  -0.3619236   0.0750107
  -0.0218862  -0.3209011   0.0902662  -0.5187709   0.8190069  -0.4923020
  -0.0223051   0.0273047   0.0052995   1.1210732  -0.0759665  -1.0796673
   0.0125043   1.0180383  -0.6336177  -0.1331065   0.4554644   0.3896520
   1.3212104  -1.9151400  -0.7561648   1.0370283   0.8604468   0.2940239
   0.2654347  -0.2137778   0.2522493   0.0740084  -0.5820289   0.1045106
   0.6670750   0.1437791   0.0110497  -0.2504018  -0.0978319   0.1869621
  -0.8585956  -0.7128602   0.1339866   0.1179619   0.3141904  -0.5431026
   0.0254902   0.0200394   0.0352025   0.3123558  -0.1396724   0.5410696
  -0.3482100  -0.6330394  -0.2316320  -0.0824384   0.0371620   0.0958708
  -0.0086752  -0.1438388   2.0695655   0.5609729   0.5811873  -0.4348848
   0.2989965  -0.2199335  -0.0082407  -0.1764288   0.1086533  -1.2835330
   0.0371627  -0.2139951  -0.1972916  -0.1380762  -0.0158853   0.1062653
   0.5301250   0.7798092  -0.1890750  -1.0612881   0.8493209  -1.1796637
  -0.1169449   0.0441221   0.1467918  -0.3555268  -0.3390889   0.2717293
   0.6450878  -0.3534464   0.9302591  -0.2599213   0.0673384   0.0105773
  -0.7611428  -1.3774408   2.4855187   0.3017648   0.3081370  -0.9554403
   0.1513716   0.3549059  -0.0276097   0.2592418   1.6960864   0.7452800
   0.5894922  -0.0562633   0.8662180   0.1426667   0.1205953  -0.0259574
   0.1504817   0.4619503  -0.2799893   0.1631054  -0.1175826  -0.6979583
  -0.2472288  -0.0413357  -0.0416274  -0.5721387   0.3171624  -0.5677433
   1.2180934   1.1668011   0.5664110   0.1059438   0.0998104   0.1515493
  -1.6088543   1.0724710   0.3535740   0.0336729  -0.1949077  -0.9437711
   0.0251347   0.2283669   0.1369087  -0.9339228  -0.1349060   0.7345471
   0.0200729  -0.5972959  -0.0842006  -0.0587436   0.1210618  -0.3644661
   0.4250191  -0.4735074   1.6850523   0.0515845  -1.2250421   0.0629159
  -0.1304452  -0.0517729   0.1818063  -0.5931463  -0.7533987  -0.1062045
   0.8968892  -0.0059735  -0.4987915   0.0104457  -0.0958017  -0.1729248
  -0.4195325   0.3345669  -1.0711979  -0.5434479  -0.5240452   0.0406263
  -0.0344965  -0.1016964   0.1627721   1.0451784   0.0215374  -0.1122735
  -0.6930721   0.7620704  -0.8967165   0.1533124   0.0581769  -0.0221667
   0.2146655  -1.0479289  -1.0147090  -0.0691287   2.1252177   0.3098845
   0.3183534  -0.1380171   0.4600402   0.6809649  -0.7939178   0.1912958
  -1.6086053  -0.6867743  -0.7092021  -0.1433988   0.0557409   0.1630872
   0.6805512  -1.8156115   0.2832549  -1.3939902   0.1878760  -0.2065030
   0.1083444  -0.1862668  -0.0916913   1.8340601   1.2578990  -0.2217056
  -0.5093032  -1.8200270   0.5900653  -0.2888442  -0.0545839  -0.0160482
  -0.4970389   1.7345717  -1.8856512   0.3297383  -0.3538933   0.3809228
   0.0045543   0.3121611   0.2072605  -0.3357179  -0.6732510  -0.1796663
  -1.5724970   0.0783794  -1.1527768  -0.0495178   0.1695355   0.1568159
  -0.1669080  -0.0724469   0.5714180   0.2906643  -1.1475447   0.1693373
  -0.1678035  -0.1576208   0.2052452   0.6933123  -0.4763986  -0.5297167
   0.8012956  -0.4258855   0.6859660   0.0062727   0.1860675   0.1988097
   1.7237580   0.4431165  -0.9706312   0.2124386   0.3071645   0.2433324
   0.0945864   0.1890518  -0.2361527  -0.0520797  -0.5290589   2.2969785
  -0.8164249  -1.8131623   0.2111088   0.2248883   0.1868270   0.1558914
   2.6722152  -0.9489967  -0.4137984  -0.7023224  -0.4115391   0.0225955
   0.0054581   0.0725055   0.0172610  -0.1505550  -1.3338127   0.0510589
   0.2881771   1.6366609   0.2423072  -0.2448442  -0.1184228  -0.0934969
  -0.0371570  -0.2163249   0.4756669  -0.1012561  -0.3256990  -0.3085813
  -0.1057028   0.1396890   0.0922449  -0.5990695  -0.5918640  -0.3286327
   0.1129180  -0.5234743  -0.2962145   0.4493716   0.0931882  -0.2643270
  -0.9266852  -0.2531385  -0.2646150  -0.3837707   0.9023743   0.1717856
   0.0098587  -0.0150727  -0.0755663  -1.0565441   0.3659456   0.6051432
   1.4470339  -0.2435701   0.3801014   0.1255182   0.2902363  -0.0147430
  -0.5167636   0.4575660   1.3116416  -1.0836227  -0.7173495   0.4952310
   0.1913141  -0.0192030   0.2809434  -0.5654957  -0.2223397  -0.0898490
   0.1582256   0.9317356  -0.0273907   0.1770922   0.3162331   0.1039724
   0.8703109   0.0986415  -0.1799744  -0.1004277  -1.0415643  -1.2390749
   0.1483318   0.0439100  -0.0922653  -0.0801128  -0.1621139  -0.0721711
   0.4298484   0.0605323  -1.0986481  -0.1287582  -0.1886073  -0.1461167
  -0.1926735   0.1209465  -1.2112861  -0.1818186  -0.0646198   0.5773321
  -0.1051874   0.2086515  -0.1461437  -0.2591421  -1.1355385  -1.3390549
   0.2703385   0.2574591  -0.9501158   0.3544073   0.1732180  -0.2728076
  -1.1659304  -0.2684368   0.3543971   0.5715696  -0.5591748   0.2457094
   0.1287906   0.2170933   0.2180177   1.1762297   0.2669564  -0.1605007
  -0.2229700   0.7968906  -0.2744088  -0.0929875  -0.0796766  -0.2193699
  -0.5545566   0.2281859   0.9185009   0.5791177  -0.0003752   0.5946615
   0.1711441  -0.0875077   0.1101912  -1.2945526   0.2272595  -0.3507470
   0.2865749   0.1830099  -0.8697152   0.1051034   0.0254371   0.0936415
   0.5695467   0.6895216   0.0156317  -1.0013483  -0.1256720   0.3671403
  -0.1711940  -0.1361001   0.0295735   1.3518665  -0.5532502   1.1224954
   1.5531167   1.2188677  -0.2077694  -0.2476658  -0.1513399   0.1628916
   0.4627222  -0.2842416  -0.2880702   1.3331946  -0.1437254  -0.2142176
   0.3323003  -0.1363241  -0.1168342   0.6441006   0.9338683   1.4288250
   1.3801473  -0.2228114  -1.5903493  -0.1550567   0.1084161   0.0302029
   0.6392230   0.2726001   0.5445861   0.9243281  -0.0063899  -0.4303035
   0.3415838  -0.2205205  -0.2348810  -1.4850645   0.2845130   0.3730774
  -0.4874221  -0.0186201   0.2384506  -0.0469587   0.0651947   0.2848467
  -0.8374437   0.2593074  -1.8600394   0.3872995   0.4787410   0.0853664
  -0.3433196  -0.0972984   0.0126856   0.2665452   0.2499108  -0.0227978
  -1.2883773  -0.6745153  -0.3121342   0.1521826   0.1475445   0.3202796
  -0.7776282  -0.3133885  -0.0163540   0.0846025  -0.4048407  -1.0471351
   0.1938467  -0.1737845   0.0328110  -0.2277434  -1.0055819   0.8436701
   0.1853557   0.2063752   0.0399963   0.1409406   0.1061329   0.2375594
  -0.2839428  -0.8660517   0.3534383  -0.2063010   0.1856550  -0.7557648
  -0.1630615  -0.4347463  -0.1194027   0.8209963   0.4256415   0.3671532
  -0.1191337  -1.6623330   0.7133136   0.0186201  -0.1604558  -0.2941500
   0.8161269   0.1959058  -0.7481725   0.5585031  -0.6310191   0.2291908
  -0.1489030   0.2163197   0.0945101   0.8666329  -1.4983330  -0.8555774
   1.0276310   0.6609169  -0.8153943   0.1328148  -0.0813232  -0.2231931
   1.1780406   0.7175648   0.0212740  -0.1716473  -0.1771295   0.5925437
  -0.0700835  -0.0763065   0.0193731  -0.7980119  -0.6279443   0.0908768
   0.4175472   0.2257418   0.5753064  -0.1592839   0.1121156  -0.2247768
   0.7569743   0.7802653   0.7998397  -0.6825725  -0.6099137  -0.2905486
   0.2477702  -0.1878264   0.1770010  -0.1617055  -0.6926358   0.1187094
   0.5726346  -0.2109302  -0.7482877  -0.3128356  -0.0704593   0.5099612
   0.7480867   0.7599129  -0.2795515   0.5651351  -0.4313336  -1.0715433
  -0.3485669  -0.0898357  -0.1614056   0.5070053  -0.6285194   0.8878899
  -0.5635592   0.2623379   1.0837630   0.1901328  -0.1891504  -0.3587977
  -0.1063134   0.0301603  -0.0692910   0.5678990   0.7517244   0.8750350
  -0.0106535  -0.1733390  -0.2270184   0.1027296   0.0974187   0.3789880
   1.1940271   0.8648294   0.6552866   0.1571457  -0.1595353   0.0717080
  -0.3911876  -0.0511819   0.6504330   0.3651470   0.3794130   0.5509343
   0.1423867  -0.0040085  -0.0419763   0.3964149   0.0775232  -0.1391093
  -0.8456110   0.3191682  -0.4936423  -0.3892778   0.1174239  -0.0287428
   0.1923832  -0.4021957   0.7975541  -0.7528270   1.5091223  -0.2171437
   0.2644114  -0.2924774   0.2043179   0.2316221  -0.3753574  -0.0282507
  -0.1151163  -0.1453025   1.1863678  -0.1750515   0.0294919   0.0380351
  -1.3931068   0.7506481   1.0298533  -0.7830853  -0.3709203  -0.3600659
  -0.0442876   0.2563215   0.0279745   1.3754086  -0.1426863   0.0224509
  -0.5283648  -0.2747860  -1.4510652   0.2863577   0.0761735  -0.0687372
   1.1176801  -0.3291070  -1.4411643   0.4383590  -0.1109910   0.3505757
  -0.0082364  -0.0645278  -0.3435614   0.0967891  -1.0106639  -0.8893341
  -0.8245257  -0.0162258   1.2225094   0.1005292   0.0736292   0.0419657
   0.7147315   0.9169837   1.1705492  -1.0662287   0.0532236  -1.6734737
  -0.2204533  -0.0851586   0.0673851   0.3877795   0.1543245  -0.0758777
   0.3611660   0.7447882   0.7926074   0.0723789   0.2065334  -0.2476132
   0.0001350  -0.7423493  -0.1062010   0.3167663   0.1156577   0.7263330
  -0.0222172  -0.0918619   0.3909057   0.3620592   0.6350188  -0.3463573
   0.0358482  -0.3594227   0.0845431  -0.4377078  -0.2476016   0.0313018
   0.3554792   0.8034750   0.6279946   1.2235729  -0.3345104   0.5716065
  -0.2684336  -0.0510921  -0.0731239  -0.5619299  -0.1615566   0.4241928
   0.4888599  -0.0108929  -0.6621485  -0.1139759   0.2598403  -0.4863867
   1.7539936  -0.4906225  -0.1289627  -0.4134347  -0.8277755   0.2768306
   0.1157068  -0.1120157   0.0503608  -0.5697224   1.4215463   1.2597286
  -1.8650053  -1.2686454  -0.2348183   0.0555415   0.4851446   0.0303651
   0.6990736   0.0219945  -0.1416922   0.1493241  -0.0460473  -0.2915858
   0.2105194   0.3026747   0.2118472  -0.3394082  -0.5876964   0.3057878
   0.6940873   0.2225212  -0.6431870  -0.0518692   0.2765076   0.2611693
   0.9580237  -0.2864630   0.8039532   0.4496070  -0.5075530  -0.1969426
  -0.3060722   0.2999713  -0.1072954  -1.3505676   0.6827645   0.2843931
  -0.9498505   0.3199905   0.9275246   0.1187591   0.0422263  -0.0688718
   0.4076091   0.9452485   0.3771851   0.4779848   0.1682181   0.9162430
  -0.1350179  -0.1903519  -0.2096756   0.0391388   0.1145268  -0.4809166
   0.9258863  -0.5929091  -0.1920322   0.1652282  -0.1317199   0.0618200
   0.0177839  -0.4788331   1.1419705  -0.4891300  -1.0566369   0.1060653
   0.1790272  -0.1829441   0.1550713   0.6571395  -0.6351442  -0.1186573
   0.3775088  -0.2028438  -1.1631987  -0.0743911   0.3199901   0.0505497
   0.1303903  -0.5844968   0.4418852  -0.4656625   0.1525394   0.1033414
  -0.3331490  -0.2577688   0.0181807   0.8784428  -0.6408628   0.3000727
  -0.4939178  -0.7968652  -0.3953999   0.1351081  -0.1880936  -0.0708952
  -2.1069179  -0.5867964   0.3571392  -0.5772538   0.2944949  -1.1273128
  -0.0884577  -0.2255097  -0.0094927   0.0792252  -0.1061713   0.7380763
   1.8081602  -0.5957308   1.0552261  -0.2408445   0.0120324   0.1137973
  -0.6567811  -1.0187372  -1.0565549  -0.6436936   0.7072673   1.2092792
  -0.0184824   0.0425138  -0.2060499  -0.0734802  -0.3602791   0.8253699
   0.9568712  -0.7061229  -0.3582916   0.2408548  -0.2389917  -0.1441677
  -0.6003054   0.3602838  -0.1320520   0.5760618  -0.4029546   0.5349892
  -0.1613224  -0.1181437   0.2691817  -0.9672533  -0.8320574  -0.8090339
   0.3210263  -0.3198524   1.7675881  -0.0340879   0.2408779  -0.1191515
   1.9291245   0.5054088   0.7328473   0.0028899  -0.9663425   0.2513682
  -0.1540140  -0.2516634   0.4010349  -0.2386652  -0.9647599   0.7582849
  -0.8150604   0.3430855  -1.0307375  -0.0296618   0.0832535   0.1211595
   0.4182000  -1.0988295  -0.8775865  -0.4859608  -0.3012361   0.2510388
   0.1901878  -0.1349650   0.0537991  -0.2494400   0.7225994  -0.4830306
  -1.0653431  -1.5447981   0.2218203   0.4166191   0.2207647   0.0325766
  -0.1543917   1.6890438   0.0084531   1.7752200  -0.1880187   1.4690666
  -0.0880742  -0.1580555   0.2982667   0.1904832   1.3903373   0.9376394
  -0.8418794   0.6497477   0.6255297   0.3954675   0.0688179  -0.1662741
  -0.7825388  -0.4753738   0.7324460  -0.1780838   0.3785670  -1.2135844
   0.1858800  -0.0670072  -0.1527156   0.2484330  -0.3393140   0.3222784
   1.2142431   0.7512056   0.4224226   0.3555604  -0.2493399  -0.3028323
  -0.6830869   0.7552864  -1.3336848  -0.0743930  -0.6909037  -0.5087513
  -0.3381063   0.0046747  -0.4078812  -0.3305678   1.0975945  -0.1756554
  -1.1181515   0.5761043   0.9523293  -0.1271244  -0.1483763   0.2816317
   0.2328088   0.7799639  -1.0675777   0.7308118   0.4967237  -0.3574574
  -0.1496885   0.1034818  -0.0174499   0.7660028  -0.7852704   0.6653940
  -1.4401355  -0.2360229   1.6902578  -0.2769068  -0.2255396  -0.1852961
  -0.3825287  -0.3579697  -1.0811608  -1.1263293  -0.9034969  -0.7610697
   0.0965628   0.0305125  -0.1581032   0.1554025   0.4273541   0.4227147
   1.4396749   0.4273709  -1.4851564   0.0957719   0.0442843   0.1087836
   0.7044499  -0.4346770  -0.1284877  -1.8760475   0.3914802   0.7416525
   0.1854944  -0.0080304  -0.1041162   0.8556929  -0.1682851   0.7910169
  -0.9069285   1.0966758   0.8705490  -0.0944058   0.1048774  -0.0328094
   1.8424416   1.3395007   0.0465749  -1.0620733  -0.0274051  -0.4297893
  -0.3035976   0.0551407   0.1646439  -0.4538808  -0.7747639   0.4736582
   0.1002710  -0.3576758   0.6247029  -0.1757857  -0.1301347   0.1885214
  -0.1263374   0.5142046   1.0021902  -0.7586337   0.9407372  -0.2540081
  -0.0673199   0.0787735  -0.0002794   0.7351623   0.2448874  -0.5254590
  -0.7282149   0.1566184  -0.3216911  -0.2731518   0.0731702   0.0956279
  -0.5500023   0.4220046  -1.1289488   0.2535039  -0.3963495   0.2418614
   0.3784229  -0.0757098  -0.4501144  -0.6160070  -0.7672659  -0.6476129
   0.5011581  -0.1466945   0.8347866  -0.3828003  -0.0989268   0.0572878
   0.8918410   0.3137570   1.1350042   0.5356811   0.2906583   0.8233349
   0.1420773   0.3496546  -0.3929586  -0.0367809   1.5412248   1.4682893
  -0.7107895   0.5178239  -1.6623667  -0.0513033  -0.0555290  -0.3158720
  -1.3310688   2.3829017  -0.6838827  -1.0788711  -0.6765450  -0.3236238
  -0.1938497   0.3506532  -0.1211726   0.4489279   0.4384723  -0.7574159
   0.1865442  -0.6388056   0.0062798   0.0162915  -0.2836102   0.1848895
  -0.7059222   0.7920856   0.1969580   1.1594310   1.6972160   1.6128609
  -0.2122753   0.1589079   0.0968338  -0.1990051  -1.1906501  -0.8766315
  -0.8842126  -0.0258463   0.3373081  -0.0232897  -0.2929045  -0.0241449
   0.9568813  -0.1810942  -2.3616786  -0.2213096  -1.0203749  -0.7449101
  -0.1553576  -0.2423486  -0.1781714   0.3592417   0.0056165   0.0910139
  -1.1001906   1.3725823   0.3549882   0.1005527  -0.0235487  -0.1728611
   0.6480090   0.1118666   0.6801575  -0.8637261   1.1894222  -0.8103987
   0.0517230   0.1912287  -0.4591173   0.8061240  -0.0207754   2.2168279
   0.4886945   1.1247500  -0.2205530   0.0270110  -0.0345019   0.0890226
  -0.1456556  -1.2216356   0.5608748  -0.7768520  -0.1870647  -0.6491250
   0.1657553  -0.4616514   0.0753045   0.4728429   0.2069502   0.6711537
   0.9734813   0.3731017  -0.1090746   0.1147361  -0.3368221   0.0118501
  -0.4935595   0.3570823   0.7280980   0.1689333   1.1390653  -1.0557872
  -0.3196773  -0.1706109   0.0372393   0.2314945  -0.0373349   1.3925575
   0.2149875   0.3867249  -0.1973484  -0.1143423  -0.0848928   0.2061952
   0.4747199  -0.2975644  -0.6456478  -0.6271150  -0.6112319   1.9671111
  -0.0325155   0.2104482  -0.2559048   0.2272637   0.1703988   0.1418192
   1.0136722  -0.2184620   0.2347230  -0.1515386   0.1122628   0.1081000
  -0.6547102  -0.8639519   0.5834875   1.1669401  -0.4991267  -0.2554117
   0.0208881  -0.0461002   0.0002107   0.1326807  -1.1569058   0.3102428
  -0.4839633  -2.2572362   0.2649449  -0.0395007  -0.0331629   0.1026275
  -0.1941931  -0.0755270  -1.4611757   0.9423607  -0.3283223   0.3874348
   0.1028476  -0.0590547   0.1180441  -0.6622829   0.8385634   1.7989922
   0.7426676   0.0386804  -0.6322973   0.0620899  -0.1245949   0.2573227
  -0.4009436   1.4019876   0.4428454   0.3831573  -1.7963221   1.4155465
  -0.0803347   0.3123080   0.0205901  -1.0040982  -0.9727209   0.4350546
  -0.1233267  -0.5272214   0.4341541   0.1185314  -0.1708112  -0.1531556
  -1.2020350  -1.7190006  -0.3157133  -0.5958154  -0.8032631   1.2929429
   0.3859632  -0.1358373  -0.2829139  -1.2690502  -0.6130386  -0.9021730
  -1.3123437  -0.9453444   1.2686347  -0.4791935   0.1324421  -0.0808312
  -0.8119560  -0.0339297  -0.2841042   0.2775209   0.8391724   1.5631723
  -0.1963357   0.2642390   0.0824134  -0.9653928   2.0766094   0.5864662
  -1.3104225  -0.5904782   1.1628351   0.1388434   0.1899458   0.2750206
  -0.6053922  -0.7946724  -0.7535341  -0.5631305   0.0998703   1.2929555
   0.1717440  -0.1640316  -0.0807555  -0.5921434  -0.6968026  -0.4075513
  -1.2456733   1.1848699   0.1272740   0.0895199   0.2812352   0.2390032
  -0.3108881  -1.2623891   0.1063760   0.0710369   0.8688887  -1.2879198
  -0.1854342   0.0633501   0.3280939  -0.4637030   1.1937199   0.2346268
  -0.7521912   1.2718520   0.0729536   0.1961247  -0.2710079   0.3052374
  -1.6666751  -0.5192455   0.7695029  -1.6583127   0.8319891  -0.5097944
  -0.2790824   0.0712033   0.0139316  -1.5730201  -1.7228857   0.0935991
  -0.1617797  -1.3434087  -2.3198144  -0.1206241  -0.1251388  -0.1321506
   0.5107732  -1.4362006  -0.6496120   1.3810166  -0.3794917  -1.0502937
  -0.0094843  -0.5217099  -0.2700591  -0.5135223   0.3301609   0.4827195
  -0.3527057   0.6473481   1.0569718  -0.0573166   0.2440213   0.0508173
   1.0143876   0.6927935  -1.3648351  -0.3994467   0.4247658  -0.1111116
   0.1233841   0.0960783   0.2593645  -1.4072136  -1.0191841  -0.9053162
   1.6743370   0.5727150  -0.8036014  -0.0129638   0.1671853   0.0826483
  -0.1046779  -0.8911763  -0.7677513   1.0000279  -1.5965735   0.6592114
  -0.0636116   0.3053851   0.0596759  -0.5645387   0.2653524   0.4827000
   0.1980980  -1.2763733   0.2950105   0.2963574  -0.1527848   0.2757932
   1.4750340  -1.1158357  -0.3440589   1.7903098  -1.3175808  -0.4937296
   0.1871755   0.1089189  -0.2532825  -1.2463204   0.2522942  -0.4882436
  -0.3412715  -1.1868807   0.1278060  -0.0763019  -0.2397084   0.0789078
   0.7937306   0.9455848   0.7919372   0.2607502   0.0893415  -0.8201991
   0.1854005  -0.0473993  -0.0893539   0.2499596  -0.0275864  -0.2815044
  -1.6224170   0.3319206  -1.0899198  -0.1954252  -0.1720131   0.2927615
   0.6381679   0.3184299   0.7271891  -1.1052523   0.5869452   1.1399308
   0.0556661   0.0300295   0.1291771  -0.1239771   0.2394992  -1.1353080
  -0.4543707  -0.4645728   0.0099267   0.2545317  -0.2783423   0.0262516
   0.2916029   0.0569403   0.5613154   0.9966445  -0.2894595   0.2785634
   0.0615748   0.0234830  -0.0303092   0.2218149   1.3543937  -0.0426534
   1.1606115  -1.4737632  -0.0414865  -0.4385760  -0.1943949   0.5065887
   0.8016688   0.1220949   1.1751949  -0.6648736  -0.8637604   1.0439405
  -0.1350248  -0.0792402  -0.0771545   0.2958378   1.4664863   0.7283471
  -0.3725630  -1.1920459   0.6200167  -0.4759468   0.0260163   0.1553160
  -0.2365533   0.2862443  -0.8392976  -0.0412180  -0.3500555   1.8008041
   0.0871598  -0.1725315   0.1524659   0.1280337   1.3294603  -0.0278824
   0.0606715  -0.6937673  -0.0142425   0.0704248  -0.0990476   0.1732693
  -0.4137354  -1.5180792   1.4350314  -0.8231095  -0.6924208  -0.2429700
  -0.2445785  -0.0873807   0.0610320  -0.2740200   0.0255997  -0.8226427
  -0.0426981  -0.1617576  -1.1521808  -0.1073157   0.3116614   0.2963404
   1.5277668   1.0162597  -0.9951663   0.2337212  -0.1262741  -0.3181257
   0.2064691  -0.2498769  -0.2768667   1.7066242  -0.4994436   1.2448667
   0.4065043  -0.5752655  -0.7800129   0.1429762   0.2288818  -0.0065756
   2.0911851  -0.3530979  -0.9179052  -0.3130134  -0.3424219   0.5654243
   0.0461509   0.0009507   0.0219652  -0.5231786  -0.9845789  -1.1102915
  -0.7407523   0.1887309   1.4665083   0.1973675   0.2139225  -0.2482366
  -0.3659868  -0.7726182  -0.5877462  -1.6270038  -0.0991843  -0.4894310
  -0.0543643  -0.4602727   0.0462588  -0.1439715  -0.2011625   0.0907540
  -0.0496183  -1.5926964   1.7160451   0.2300214   0.0963190   0.4508864
  -0.1392479   0.5308394   0.5312877  -0.2650842   0.5725768  -0.4257894
   0.0224245   0.0953709  -0.0850200   0.5248051  -0.3952956   0.9426205
   0.3422394  -0.7048357  -0.1688488  -0.0843458  -0.1055022  -0.1111951
  -0.0953974   0.4732797  -0.5947135   0.4089125  -1.0379635   0.8587258
  -0.2474118  -0.0426833  -0.0159656  -0.2327170  -0.0445413  -0.5761597
   0.8717149  -0.1610928  -0.3520971  -0.0864568   0.1050420   0.1576370
  -0.9004611   1.2304008   0.0647588   0.2392670   1.1048738  -0.7132637
   0.1894730  -0.0232221  -0.1680207  -0.5541685  -0.0480204  -0.1135847
   0.9233270   0.9602485  -0.0423924   0.1218770   0.0946286   0.2526149
  -0.4101461  -1.3783543  -0.6581785   0.9518395   0.9965937   0.4432573
  -0.0328340   0.2148848   0.2969180   0.2739487   0.7905577   0.1268539
  -1.6740502  -0.3001398   0.5118659  -0.0343573  -0.1470497   0.1051356
  -0.7730407  -0.1595037  -0.2474489  -0.4855687   0.1256222   0.0468163
  -0.1104904  -0.0567286   0.0527114   0.0009126  -2.0879860  -0.3817641
  -0.1161405  -1.2132752  -0.8355011   0.4323755   0.0067321  -0.4128214
  -2.0607350   0.8253400  -1.3180208  -0.7849428   0.2205995   0.4802736
   0.0901109  -0.2600528   0.0164145   1.1291643   0.5691512  -0.5265362
  -0.1581741   0.6056955   0.2438930   0.2676506  -0.1341000   0.2535075
   1.4266639  -0.1914608  -1.2029643  -1.0566963   0.4217822   0.0516164
  -0.3405201   0.1815672  -0.1391422  -1.2167562   0.2509734  -0.6838389
  -0.1055805   1.4064388   0.4511971  -0.0013660  -0.0653158  -0.1720211
   0.2685127   0.0011032   0.2517627   0.4308550  -0.0688149  -0.0688907
  -0.0713662  -0.1057126   0.1235493  -0.0607342  -0.8756463  -1.0969201
   0.5925567  -1.0583793  -0.3210476   0.1416322   0.2320706   0.1418159
  -0.3523689   0.4594110  -0.6443687  -0.1677199  -0.4523554   0.8342389
  -0.0121227   0.0949823   0.1732152  -0.7958441   0.5947941  -0.1308648
   0.7243870  -0.7404090   0.6121674   0.2076610   0.1073500  -0.2078624
   1.4811946   0.2528835   0.9259686  -0.8965341  -0.7832367  -0.0117392
   0.0841382   0.2566770  -0.0331719   0.0084870   0.8616622  -0.7638071
  -0.3718603  -0.1623858   0.3838684   0.1904001   0.1920268  -0.2088154
   0.2345126  -1.0155233   0.7816423  -0.1506893  -0.0065416   0.2663624
  -0.2664478  -0.1096103   0.1192780  -1.2251735  -0.2916771  -0.4440162
   1.3731498  -1.2291172  -0.7835250   0.1306576   0.2705259  -0.1415490
   0.7938877   0.6648236  -0.6093914   0.2536507   0.1650884   0.9237181
   0.1303976  -0.1595168  -0.1337304  -0.1676876   1.3691970   0.4281526
  -0.3795008  -0.5410813  -1.3966814   0.0807422   0.0214674  -0.1892558
   0.2797886   0.5215349   0.5148719   1.0625684   0.7803922  -0.3434694
   0.3573531   0.0216098  -0.2246660  -0.1501945  -0.4626927  -0.0658841
   0.5363157  -0.4868907   0.9863633  -0.1514893  -0.3089301   0.3226418
   1.0395854  -0.3270095   1.0383184  -1.3997580   0.5064566  -0.5142168
   0.2546223   0.0873930   0.0927695   0.3817852   0.5152743   1.5714962
  -0.7157306   1.2189126  -1.0378504   0.2182941  -0.1156548  -0.3709074
  -0.2745290   1.1634735  -0.1860547   0.7492044  -0.2881090   1.1618471
  -0.1054019  -0.1047612  -0.0094376   1.4030291   0.1928257   0.2222643
  -0.2442474   1.0218561   0.7817696   0.0031801   0.1788935   0.3112584
  -0.6353125   2.0668957  -0.1139648   0.0830593  -2.2892478   1.0291251
  -0.0302140   0.0171548  -0.2182200   0.4540176  -1.8988111  -0.5328006
   1.3712181   0.5208542  -0.6056678  -0.2385532  -0.0535343   0.2653825
  -0.0931442   1.5061957  -0.9597718  -1.1547824   0.6072649   0.6786539
  -0.0514843  -0.1096635  -0.1790224   0.5312173  -1.0005597   0.7093732
  -2.6021912   1.2117989  -0.6296934   0.1566105   0.0072892   0.1745621
  -0.9634997   0.0089061   0.2262324  -0.8446836  -0.5807826   0.3987387
   0.2419865   0.0628943  -0.2452244  -0.3066376   0.1337024   1.7299281
  -0.8874557   0.0816775   0.4847953  -0.1400344   0.1077036  -0.1336612
  -0.7265574  -0.8503286  -0.3034942  -0.6657368  -0.4231682  -0.3198132
  -0.1722594   0.0876880  -0.2771673   1.0378244  -0.1503512  -0.9650571
  -1.1362008   0.4628988  -0.3195492  -0.1504175  -0.0512530   0.3984989
   0.8583793   0.1002681   0.5134844  -1.3202903  -0.8488795   1.6753547
  -0.1818734   0.0902714   0.0167314  -0.2367424   0.6860729   0.7705166
  -0.2606907   0.2956239   0.2583967   0.0820183   0.0147908   0.0628823
   1.2349272   0.6167361   0.8657389  -0.5860177  -0.9921309   0.6280324
   0.2129498  -0.0556145  -0.1859241   0.0246405   0.0422693  -0.0970622
  -1.5380435  -0.8938046  -1.8441098  -0.2542862   0.0180251  -0.1746379
   0.4692997  -0.1337617  -1.6787274   0.0187246  -1.3786166  -0.2127662
   0.2688924   0.0049349  -0.0126483   0.0914509  -0.3888291   0.7663311
   0.0527899   0.6652731  -0.1830694   0.2235705   0.0680127  -0.0077590
   0.2397152  -0.1979667  -0.1891679   0.4751392   0.9906502  -0.7307465
   0.0621417  -0.2653110   0.2838255  -0.4300340   0.9595844   0.1358352
   0.7578635  -0.8450826  -0.2073148   0.0034684  -0.2532240  -0.0838337
   0.3532172   0.3593445  -0.9077852   0.5160028   0.8469917   0.6761414
   0.2623876  -0.0764918  -0.1021109   0.4212694   0.0146373   1.9286965
  -0.5766318   0.1846384  -0.3562244   0.0860485   0.0030507   0.0378804
   0.1508910   0.1083086   0.3249288   0.6908664  -0.2423725  -0.0778753
  -0.2058949  -0.0389985  -0.0903552  -0.2510501  -0.6606958   0.7773724
  -0.8223248   1.0791885   0.4770200  -0.0107769  -0.0278867  -0.0633547
  -0.7414919  -0.5964595  -0.1658658  -0.2854859   1.1940304  -0.0481413
  -0.2248354   0.2563874  -0.0795553   0.0391976  -0.8886796  -1.3751981
   0.3966425  -0.5845981  -0.0708946   0.3141273  -0.2595030  -0.3117846
  -0.1912435  -0.0353276  -1.5289160  -0.5580086  -0.0333632  -0.0484109
   0.1954422   0.1643305  -0.2229132  -0.1591837   0.1119385   0.0779501
   0.0626635  -1.5323690  -0.0543166  -0.0465380   0.1024623  -0.2049987
  -0.8318571  -0.2849440   0.5385434   0.5561710  -0.4390077  -0.0330994
   0.4281533  -0.3570748   0.2752667  -0.9412033  -1.6048476  -0.5927691
  -0.5250470  -0.9410366   0.0868297   0.1939741   0.2857104   0.2201819
  -0.4117249  -1.1726590  -0.7663702   1.9759498   1.1470116   0.3527818
  -0.0606740   0.0212431  -0.2071387  -0.3328818   0.0072492  -1.4269736
  -0.7923051   0.6240168   0.6579852  -0.1666675   0.0768386  -0.2289829
   0.6208960   0.4235964  -0.3023735   0.4932689   0.8289794  -0.5459823
  -0.1262152   0.1235164  -0.0129723   0.6635715   0.2720184  -0.0450016
   0.8233417   0.8908454   0.3095865   0.0944879  -0.1216908  -0.1156332
   0.2727654   0.7343044   0.4422933  -0.2118344  -1.0503563  -0.7091721
  -0.2908805   0.3758995   0.1507684  -0.5830383   0.3454953   0.4137116
   0.8675703  -0.9652762  -0.1086029  -0.0983673   0.1185932  -0.0209381
   0.6140028  -0.4813988   0.2703229   0.4109719   0.1704869   0.7804643
   0.1759603   0.1801062   0.2037348  -1.5637088   0.5241676  -0.2659794
   0.3349064   1.2132672   0.9035875  -0.0053450   0.0194353  -0.0570352
   0.2105756   1.4595243  -0.7815230  -0.0566425   0.9671837  -0.3105287
   0.0708013  -0.1196972   0.1935376   0.2052336   0.1650196   0.1662667
  -0.4078637  -0.9613796   0.9904021   0.0874147  -0.1748805   0.2804657
  -0.3955047   0.5572593  -1.5290109   0.1991047   0.1245687   0.4106161
   0.2048568   0.0462919   0.0038811  -1.0127918   1.2710819  -0.9245209
   0.5124645   0.9462401   0.3413635   0.1504269  -0.1058143   0.0303375
  -0.8342079   0.7887809  -1.1546422   1.2393235  -0.1325950   0.4212149
  -0.1098647   0.1830945  -0.1981606   0.5145949   0.7531111  -0.4790905
   0.0350382  -0.3675913  -0.1111528  -0.0771020   0.0122232   0.0518973
  -0.8033153   1.0064228  -0.0279846   0.9905627  -0.0000845   0.6858849
   0.1053058  -0.0387225   0.0646617  -0.2332512  -0.9007850  -0.2863408
   0.5972333   0.8363515  -1.3908368  -0.2089046  -0.2753432  -0.1597211
  -0.0805724   0.4790609   0.9549799   0.2268851  -0.2024458  -0.9928948
   0.0378625   0.1637020  -0.0114429   0.0130064   0.2777655   0.0372721
   0.3166290  -1.0534863   0.5403747   0.0194663  -0.0380943  -0.1710807
   1.9468869   1.5485994   0.8001341  -0.2358169  -0.7414851  -0.3231652
   0.0819607   0.4106749  -0.1618620   0.1883573  -0.9364165   0.1236533
   1.2201359  -0.3886273  -0.1758285   0.0898200   0.2780371  -0.2307658
   0.9751760  -1.1970146  -0.4059394  -1.0952467   1.1386076   1.9976745
  -0.1276800   0.2018597  -0.2438471   0.2604713   0.1512613   1.0473211
   0.0278542  -0.4483115  -0.3700650  -0.2827426   0.0050677   0.0765101
   0.7577760  -0.7558883  -0.6424213   1.6191938   0.6661525   0.0625063
  -0.0196036  -0.3779021   0.0818057  -0.5009734  -0.2148882   0.6286767
  -0.1056559   0.0847634   0.1984124   0.4699366   0.0156642  -0.0492892
   0.3472410   1.0334979   1.0715139  -2.1833539   0.2773966   0.9742348
   0.0894002  -0.1845711  -0.0184338  -1.6810971   0.2638227  -0.1256204
   1.9456555   1.5312583   0.3281006  -0.3259746  -0.0091939  -0.1400582
  -0.3425689   1.1390975  -0.4872935   0.2148457  -0.1256825   0.8323972
  -0.1134705  -0.2237012   0.0062085  -1.3483616  -0.1347463  -0.8009053
  -0.4226809  -0.9004992  -0.6697795  -0.0219760   0.0560668   0.3571868
   0.1283357   0.4603934  -0.5520504  -0.6756296  -0.7550269  -0.1433353
   0.0877449   0.0603583  -0.0518138  -1.0905180  -0.9973273  -1.7714747
  -0.7207929   0.3055995   1.0320017  -0.3299479   0.0814342   0.0533095
   0.4654184  -0.0435327   0.1148013   0.4861113  -0.1474150  -0.2290034
   0.2879894  -0.2800675   0.0201765   0.6733829   0.6645726  -2.2479031
  -0.2053782   0.4620229  -0.5396237  -0.2944961  -0.1441638  -0.1197161
  -0.2056876  -0.7206610   1.3504117   1.1927077   0.6025586  -0.8887556
   0.1970851  -0.0161756  -0.0898807   0.7861133   0.6354469   0.1390141
  -1.2449182   0.4662977  -0.0798326   0.1331031   0.1636878  -0.2706795
  -0.3499093  -0.0849414  -0.7574235  -0.3058777  -0.7230272   1.0997276
  -0.0911818  -0.4090269   0.0910244  -1.1806762   0.9439741   0.0682377
   2.1300337  -1.0499005  -0.8680403  -0.0306024  -0.0999835   0.1948117
  -0.1131477  -1.3136566   0.7056018  -0.1637155   0.8279882  -0.8789983
  -0.0852860  -0.0467577  -0.0746770  -0.3037191   1.3819810   1.4332778
  -0.3695855   0.1915734  -0.0860145  -0.1523335  -0.1320504   0.0321952
   0.5660017   0.3030608   0.3421384   0.3267196   0.4268736   0.5583699
   0.0932473  -0.0187009  -0.0450582   0.7909106  -0.2903784   0.5522155
  -1.3486369  -1.0275410  -0.0850546  -0.1158451  -0.1850055   0.0710231
  -0.3600897   0.3010533  -0.3183582   0.4433069  -0.2768621  -0.9116416
   0.1820034   0.0446771  -0.0123025   0.2173108   0.6013082  -0.2811557
   0.4180899   0.3818412  -0.0840919   0.1918995   0.0517888  -0.0653507
  -0.4119171   1.2877609  -1.4734477  -0.0298048   0.3525849  -1.1394460
  -0.0180395   0.0857617  -0.1727298   1.8432509  -1.3774798  -1.6212895
  -0.0303943   0.4281192   1.2266719   0.0746321   0.1646348  -0.0767603
   0.4142388   0.4079157  -0.5666385   0.2975493  -0.8983248  -1.4301652
   0.1904889   0.3619346   0.1213173  -1.1214763   0.7498939   0.3998803
  -1.1974061   0.1390404   0.2179856   0.1221440   0.1350017  -0.0647397
  -0.3854116  -0.2739702   0.4830443  -0.3682765  -0.5693326  -0.7707170
  -0.1300997  -0.2598114   0.1719107  -1.4833076   0.6666216   1.0192000
   1.2330751   0.3471506   0.6102393  -0.0505988   0.5529010   0.1291794
  -1.4374424  -0.7951741  -1.3515104  -0.0216276   1.5659863  -0.7209442
   0.1246169   0.1631826  -0.0191122  -0.5625169  -0.4192480  -0.2948767
  -1.1395413   1.1165850  -0.8726299   0.0929838  -0.1525402   0.1151729
  -1.5682881   0.1148913   0.1269335   0.3702447   1.4876595  -1.1075007
  -0.0030188   0.0557412  -0.1764390   0.7939950  -0.8615467   0.0245229
  -0.2413245   0.3001014  -0.3497901   0.0952481  -0.2084274   0.1541408
   0.4849599   1.2747639  -0.7402189  -0.3041557  -0.5133893   0.8321520
   0.0404242   0.1170955  -0.0217610   0.5284548  -0.8349118  -0.7831991
   0.1127245   0.6944538   0.5068489  -0.1417284  -0.1563954   0.2505143
   1.1895528  -1.0732847   0.6668916  -0.5553933   0.0017449  -0.2204423
   0.0875696  -0.0609731   0.1347919   0.3772718  -0.0709948   0.7535746
   0.9185790   0.3421068  -0.2570840   0.0022313   0.0010201   0.1555073
  -0.9621996   1.1649715  -0.1979444   1.1034698  -0.1203801  -0.1050557
   0.0500101   0.0990430   0.2411575  -0.7168907   0.3402150  -0.3075401
   0.6661580  -1.3329787  -1.4632072   0.1618911  -0.0089481   0.1007717
  -0.8049381   1.4491276   0.5141714  -0.3099946  -1.0439448  -0.6804265
  -0.2443952  -0.0648705   0.1846338  -0.5130858   1.4558980  -0.1911653
   0.1964407  -0.3652973   2.2430913   0.0052722  -0.1662129  -0.1473320
  -0.0201065  -1.2532130  -0.2751701  -0.8144335  -0.1930072   0.2967682
  -0.2559870  -0.2573462  -0.0152258   0.2314683   0.9283887   0.8554090
  -1.4553378  -0.4774618  -0.4007427   0.0217313   0.1500809   0.1432487
  -0.1583700   0.6888095  -0.3476155  -0.8832183  -0.4602890  -0.8088213
   0.1995096  -0.0830254  -0.3054894  -0.0886289   0.0579854  -0.2600252
  -0.7474815   0.4996688   0.6953189   0.4113849  -0.1281906   0.2194884
  -0.2039261  -0.4970269   0.1299292   0.0609092   0.0259125  -0.0309362
  -0.0169286   0.3400903   0.0362983  -0.5251759   0.8844019   1.0953470
   0.1406780  -0.0321395   0.4425293  -0.1171966  -0.1599304   0.1461500
  -1.6316638  -0.8454159  -0.6916020   0.3473106   0.4269260   0.5244007
   0.0273543   0.0606839   0.2978537   0.9134129   0.9871039  -0.7999197
   0.4336364   0.0488525   0.0772431  -0.0943305  -0.1313950   0.0922245
   0.0447877  -1.1919271   0.9966547  -0.6222884   0.1923052  -1.4114361
  -0.1165021  -0.2110430   0.0507061  -1.6205591   1.4767331  -0.4022105
   0.9904349   0.1233258   0.3561502   0.0291068  -0.0085105   0.0220157
  -0.6361933   0.8019779   0.3689585  -0.1181933  -0.9004996   1.0092359
  -0.1877964  -0.3755538   0.3036131  -0.4342264  -0.0875949  -0.0291078
   0.8083096  -0.3682416   0.2155794   0.0746455   0.0208215   0.2547858
  -1.3879063  -0.2615209  -0.6273001   2.1856143  -0.9996605  -0.2046799
  -0.1512648   0.4289039  -0.0988727   1.6610171   0.6473737  -0.0892745
  -1.0138237   0.0856749  -0.8608627   0.1026051  -0.0630042   0.2907490
   0.5703933   0.0543639   1.7928635   0.3748210  -1.6826687  -1.2499495
  -0.0592487  -0.1491731   0.1569498   0.4424658   1.1565784  -0.2508664
  -0.8743172  -0.4739777   0.2154932  -0.2499418   0.0545510  -0.3091404
   0.9604748  -1.1591545  -1.1734860  -0.0199880  -0.6257844   0.5536864
  -0.0933131   0.0681117   0.4074130  -0.1965752   0.0146244  -0.4373368
  -0.1962953  -0.4151418  -0.7711774  -0.2445114  -0.1855430  -0.1158823
  -0.2033656  -1.1242065   0.3281990  -0.6990311  -0.0895890   0.4943026
   0.2254813   0.0013095  -0.2714088  -0.3657888   0.9982116   0.9357192
  -0.6733461  -0.4033820  -0.5007144   0.0284613   0.3423119  -0.0640680
  -0.3382548  -0.7431161   1.3432440  -1.0937605  -0.8086209   0.4912138
   0.0821530   0.1434698  -0.2742640   0.2784053  -0.5378476  -0.7353543
   0.5510271   1.6673831   0.1181624  -0.1319867  -0.0830778   0.0159332
   0.2464320  -0.8877520   0.7538507   0.2430442   0.2048835  -0.2849538
  -0.2850217  -0.2614150   0.0584579   0.1914996  -0.3878304  -0.0348204
   0.4124232   1.1005074  -1.2374507  -0.0765041  -0.1738017   0.1002989
   1.5156313   1.2891085   0.1451035   0.4149904   0.1754829  -0.1140403
   0.0472077  -0.0210244  -0.1553807   0.3165689  -0.5340099   0.0096299
   0.3715154  -1.2596571   0.7391813   0.0478079  -0.0164501  -0.0011692
  -0.1444171  -0.7532688   0.9981046   1.3471915   1.5981597   0.7332304
   0.1364313   0.1468271  -0.0109529  -1.0698302  -0.3311122   0.9038638
   0.4929292   1.0067943   0.0646537   0.1308732  -0.0605834   0.1500579
   0.9131882   1.4189167   0.4579464  -1.1125413  -0.2242554  -1.4727449
  -0.0655773   0.2432036  -0.0418585   0.0759752  -2.1904671   0.0290721
   0.5545883  -0.1297497   0.2608033  -0.0393977  -0.2610202   0.1386129
  -0.0113725  -0.7172447  -0.6108420   0.4796377  -0.5808591  -1.1037241
  -0.1797771  -0.1114300  -0.1399620  -0.4206507   0.4147946   0.7467792
  -1.3668522   0.6416553   0.5069895   0.0610157  -0.1189368   0.0808887
  -0.2535977   0.7666382  -0.8786557  -0.2472136  -0.4098144  -1.2842202
  -0.1538128   0.2300110   0.1666634  -0.8112110  -0.9580191  -0.8742303
   0.0259450  -0.0505424   0.2177726  -0.0026052  -0.2411896   0.0762815
  -1.7529830   1.9325528  -0.6164351   0.6291664  -0.2265251  -0.0274133
  -0.0382470   0.2069047   0.1220742   0.5136977   0.3363143   0.9223287
  -0.6405709   1.2042850  -0.4913658  -0.3601992   0.3244532  -0.0695330
  -1.9003489   0.0759582  -0.9318150  -0.8543838   0.6480580  -0.6849779
  -0.1482927   0.1949442   0.0250145   0.7418206  -1.3414223  -0.3197914
   0.2668130   1.0673547  -0.0517120  -0.1743789  -0.3416729  -0.2636421
   0.1687776  -0.2209261  -0.0144356  -0.2857974   1.2583854  -0.2702105
   0.2187768  -0.0898314  -0.0755703   0.0066807  -0.1277274  -0.2252907
   0.3075209   2.0780764  -0.6730152   0.2480071   0.1105385   0.0975000
   1.4949043   0.3770861  -1.1714661   0.4393089   0.5348252  -0.7423147
  -0.1400465  -0.0933773  -0.2873574   0.3226470  -0.0848043   0.3421927
   0.0431277  -0.1564319   0.4614481   0.3428091  -0.0608399   0.1197490
   0.1615553  -0.9240891   0.7827974  -0.1945071   1.3068794  -0.2775468
   0.1282604  -0.1491457  -0.3071905  -0.2437409   0.4519679   0.9725204
  -0.6934788  -0.7945606  -0.7918944  -0.1395888  -0.0465611  -0.2312396
  -1.5810757   0.1819685  -0.4521100   0.8152166   1.0098991   1.1855317
  -0.2607840   0.2566952   0.4008849   0.4646143   0.1426473   0.7356800
   2.0495279   1.6889828  -0.0888472   0.0247595   0.1122528  -0.1917916
  -0.0700593   0.4620766  -0.6327908  -0.1025409   0.5502873   0.5852343
  -0.0284494   0.0138479  -0.0821043   0.2550387  -1.1038125   1.0674069
   0.1013416  -1.1778761  -0.2163271  -0.0182635   0.0340092   0.0121537
  -0.8705747  -0.9553155   0.4944468   1.2300928  -1.2872884  -0.0877558
   0.0334196   0.0134720   0.3050341   0.1388429  -0.7335866   0.2173312
   0.1299439   0.7885674  -0.9568600  -0.0581518  -0.2815816  -0.0743873
   0.6867031   1.0794444   0.0535941   0.6397331  -0.0920426  -0.2504655
   0.1748156  -0.1380011  -0.3828552  -0.9059361  -0.8964648  -0.8356607
   0.3812967  -0.7882276   1.3808811  -0.2785106  -0.1594100  -0.0521283
  -1.9956129  -0.9561694   1.1548338   1.3973184  -0.1910074  -0.3034448
   0.3130436  -0.1439355   0.0293884   0.5910362   0.3538268   0.2593305
   0.6036606  -0.1432132  -0.5127026   0.1337565  -0.1815361   0.0059054
   0.9224939  -0.0593657   0.0174739  -0.1214777   0.0291187  -1.1644756
  -0.3281161  -0.0595115  -0.1004760   1.4192754   0.3083716  -0.9452262
   1.2949743   1.2930468  -0.2335092  -0.2565246  -0.0844354  -0.1170915
   0.3939219   0.4010616   0.2095496   0.3731884   1.5091125  -0.7609288
   0.1306404  -0.2404497   0.0420433  -1.4480257  -0.5619776  -1.1450651
  -0.0428359   0.3632737  -1.0816152   0.1700972  -0.1428534  -0.1082746
  -1.2050171   0.1774635  -0.3719226   0.8578790  -1.7408172  -0.3545570
  -0.2451380   0.3643131  -0.0237331  -0.0398108   0.8471020   0.8617765
   1.3434786   0.4870376  -0.1751419  -0.0475990   0.0420092  -0.2842207
  -1.2051369   0.6260385  -0.4326705  -0.0102385  -0.6046875   0.2384683
   0.0846431  -0.2902591  -0.1693425  -0.6694170   0.1107184   0.0041373
  -0.3526905  -0.1847637   1.0657984   0.0548597  -0.3065121  -0.2273047
  -0.1376560  -0.0908469   0.3808505   1.5086553  -0.0018277   0.4669187
  -0.1348584  -0.0638103  -0.3415837   0.1067852  -0.8284265   0.9808887
   0.4321915   0.7040131   1.1102002  -0.0688244  -0.0285092  -0.1773592
  -0.0479945   0.3231458  -1.1281048   0.4828719   0.2772440   0.1326745
  -0.1502365   0.1242540   0.0563262   0.3707652  -0.5151808  -0.6305404
  -0.5086300   1.1184690   0.3326481  -0.0566288   0.1287507  -0.0094603
   0.5265996   0.6856865   0.5978257  -0.0195503  -0.3352185   0.0589390
  -0.0654902  -0.2032067   0.2513554  -0.7507748   0.8408656  -1.0687957
   0.8333123   1.0824733  -1.0967584  -0.1727493   0.3576678  -0.1241969
  -0.4468817  -0.3046747  -0.4999326   0.7131782   0.4055668  -0.9973655
  -0.1420459   0.0520990  -0.1486849  -0.0196113   0.6109204  -1.4842616
   1.2321677  -0.1926703  -0.2136162   0.1010248  -0.3939048  -0.3737444
   0.5442925   0.3193224   0.0724639   0.2601509  -1.4539037  -2.7865877
  -0.1015685  -0.1227904   0.2892122   0.0764388  -0.0530840  -0.6317333
  -0.4198912  -0.4145498   2.1829517   0.0840731  -0.0080831   0.1072543
   0.4209332  -0.8250828  -1.2472813  -0.7029626   0.2983041   0.0734558
   0.1435448   0.2802720   0.1540141  -0.0790103  -0.3639516   1.0517180
  -0.7061599  -0.1643703   0.7594502   0.1338385   0.0087019  -0.2811970
  -0.2258448  -0.5907840  -0.4834252   0.7958762  -1.2385023   0.3172863
   0.3199322  -0.0911972   0.1456991  -0.6727147   0.9962756   0.2282606
   1.5524772  -0.4253753  -0.2624777   0.0372117   0.0579041  -0.2481359
   0.0967576  -1.2965451   0.7387297   0.8248538   0.7742813   0.2661532
  -0.1115452   0.0767920   0.1073373   0.2006699  -0.8013179   1.0018325
   0.8550400   0.6222627  -0.0989632  -0.0976738  -0.2328598   0.0072747
   0.8118517  -0.8182193  -0.0337451   0.5114697  -0.1249348   0.4781900
   0.0910525  -0.2442819  -0.2915543  -1.0830126  -1.1396183   1.3256261
   0.4645307   0.6532865  -0.0980837  -0.0317879  -0.0384404  -0.3231234
  -1.7242140  -0.1723478   0.8670346   0.4596289   0.9490086  -0.2702650
  -0.2052699  -0.4391057  -0.1029326  -1.2327272   0.7506894   0.2019260
  -0.4073863  -0.3349985   0.4264594   0.1392244   0.3030479  -0.0965506
  -1.3107769  -1.1441212   0.2276278   0.4734926   0.3405333   0.8742304
   0.1291011  -0.1315166   0.1059984   0.7181746   0.6061714   1.2027212
   0.4895716   1.1156820  -1.8203239   0.1031521  -0.0526852   0.0782238
   0.7218119  -0.1721233  -0.0025589   1.5362241  -0.4719589   0.5337693
  -0.0153983  -0.2602773   0.0411956  -0.3469141  -0.0293814   0.8232055
  -0.1035671  -0.1051028   0.4448067  -0.0238945   0.1122154  -0.4535207
   0.5210615   0.4119611  -0.5004127   0.1451034  -0.4098849  -0.3988279
   0.2763175  -0.0369149   0.0781034   0.2542485  -1.2555786  -1.9549885
   0.5071250  -1.4750512  -0.5283457  -0.1438849   0.2960835  -0.1742637
   0.8207656  -1.5086548  -0.0959509  -0.3571788   0.0495684   1.1559122
  -0.0590122   0.0900606  -0.0263015   0.2810766  -0.1112398  -0.1980376
   0.9857445   0.3626910  -1.0290844  -0.1205458   0.1050712  -0.0065001
  -0.7281677  -0.5771933  -0.4509001  -0.7381945   0.4323085   0.5005311
   0.1545585  -0.1143145  -0.0873090   1.2273415   0.3885629   0.6477241
   0.2651515  -0.8787923  -0.3175993   0.4423441   0.1445728   0.3779233
  -0.4021968  -0.1801450  -0.4898751  -0.6231697   0.1831352   0.3332694
   0.3232068  -0.0820003   0.0060527  -0.7101718  -0.4074639  -1.9400432
  -0.0130504   0.9749919   1.5369661   0.2207127  -0.2089635   0.1101156
   0.1412005  -0.9792424   0.1151163   0.7741316   0.1495310  -0.8546069
   0.3569229  -0.0639965  -0.3268471  -0.6601230   0.9450666   0.7325874
  -0.3560223  -1.9779981   1.1593051  -0.2022042   0.0502831  -0.1570394
  -0.0947979   0.5048389  -1.7017875  -1.0687833   0.5818048   0.7401081
  -0.1692471   0.0359767  -0.0496237   0.5532538   0.2319553  -0.0208779
   0.3324817  -0.0716824  -1.3243577   0.0932983   0.0602312   0.3554781
   1.3212745   0.2872500  -1.0593008   0.3292270  -1.5171387  -0.2369751
  -0.0527285   0.2245644  -0.1898995  -0.8041074  -1.1205387  -1.3391732
   0.3798917   0.7338439  -1.0559983  -0.0137222  -0.0177395   0.0890637
  -1.1860341  -0.2263478   0.2242150   0.3361613   0.3637526  -0.3218876
   0.2548930  -0.0051395   0.1100985   1.2307807   0.6811633  -0.1711269
  -0.6747031  -0.2687875  -0.8344386   0.1285714   0.0703244   0.2273050
   1.1816638   1.0275992   1.3113344   0.5935516   0.5495352  -0.6609911
  -0.2015599   0.2242688   0.0420732   0.2506149   0.3526873  -0.2002024
  -0.2190483   0.7570671   0.0700399  -0.0626390   0.0509055   0.0101357
   0.1490805   0.0498711  -1.2721629  -0.1971502   0.9942852  -0.5805979
   0.1609140  -0.2218161  -0.0070870  -0.4733073  -0.5650331   0.0831883
   0.4500863   1.5048959   1.0643016  -0.0894433   0.3559706   0.0733414
   1.3990062   1.4630526   1.3002423   0.4430470   0.8592060  -0.2723897
  -0.0840982   0.0645485  -0.0146222   0.2099313  -1.0140855   0.3029562
   0.5947077   1.2377533  -1.2900054   0.1413479  -0.4384958  -0.0596641
  -1.0937406  -0.5522569   0.8691018   0.6668919   0.2976989   0.6693974
   0.2770801  -0.1511488   0.3040070  -0.0462713  -1.0338750   2.6963923
   0.5432991  -1.5217830  -1.3965796   0.0875599  -0.0107415  -0.0779562
   0.1235571   1.0404185   0.2182798  -0.4001332   0.2929797  -0.4464853
  -0.3297716  -0.1285608  -0.0784994  -0.6551310   0.4060308  -1.4169663
   1.5754564  -0.0165109   1.7334030   0.3585998  -0.1997402   0.0833945
   1.2051444   1.1785734  -0.9881398   0.5624918  -1.0025965  -0.5722277
   0.1600389   0.2674980   0.0151049   0.7279925   1.0098547   0.1989153
  -0.5065930   0.3037055  -0.2756220   0.0643340   0.1649016   0.0143037
   1.2398965  -0.7424673  -1.2945988  -0.4950795  -0.0443681  -0.6832262
  -0.1050188  -0.1061967   0.4766113  -0.6340126   0.0770603  -0.1979943
  -0.2663857   0.3126991  -0.5029987  -0.2161564  -0.0756279   0.0042492
   1.2694949   1.0323150  -0.8508806  -0.1759124   0.0741983   0.0731871
   0.2195759  -0.2234935  -0.0452015  -0.5838841   1.0560124  -1.9407992
  -0.0513808  -0.0947548   0.3606050  -0.1357970  -0.0765946   0.0132985
  -0.1810551   0.0696939   0.4537379  -0.1592101   1.2820091   0.0182394
   0.3068893  -0.1227682   0.1088952  -0.3096855  -1.1321619  -0.0564895
   0.6094587   0.5671293   1.2591972   0.2269940  -0.2801761  -0.1436941
   0.8538135  -0.0946634   0.9530536  -0.5684814  -1.0308658   0.5451686
  -0.0169188   0.0070506  -0.3626217   0.4780228   0.1102014   1.9036485
   1.5348390  -0.0149014   1.5428728   0.0656073   0.1381052   0.2229344
   1.1302594  -1.2269703  -0.2114623   0.7456993   2.6998827   0.6147697
  -0.2662984   0.2300916   0.0501795   0.1595683  -1.7642916   0.5079468
  -0.3775449  -0.7495654   0.6469271   0.3661835   0.2333215  -0.0344033
  -0.0759226   0.0597604  -0.4050823   0.1020852   0.0078440   0.4985064
  -0.0053870   0.1993554   0.3076515  -0.3300471  -0.4280612  -0.5777323
  -0.9028991  -0.1363135  -0.1973388  -0.0202693   0.2867611  -0.1157873
  -0.0049772   0.1067013   0.4272778   0.9415002  -0.2595207  -0.9433815
   0.0268716  -0.1496479   0.0458991   0.4600285   1.6457272   1.0653123
   0.4884923  -0.1950180  -0.2373910   0.2141140  -0.0756666   0.1388323
  -0.8449081   1.2040452   0.2890469   1.4871879  -1.4106487   1.3367269
   0.2844541  -0.0319464   0.1508268  -1.3221060  -0.6356258  -0.4408919
   0.0948799  -0.4304968   0.5756969   0.1923288  -0.1496983  -0.3596699
  -1.0699818  -0.7847020   0.2896475   1.0508940  -0.7487875  -0.0220321
  -0.0700459   0.0461395  -0.4698958  -0.0721188  -0.0634350  -0.6008043
   0.2105685  -0.4385337  -1.7166474  -0.3795053   0.0152460   0.1991952
   0.3985730   0.4002401   1.5692952   0.8360629   0.4698288   0.9726077
   0.0116773   0.1015361   0.1422764  -0.1888582  -0.8185033  -0.3306802
   0.4351189  -0.1846028  -0.5495296   0.0456685   0.1266320  -0.0595010
   0.2469471  -0.2511582   0.5637751   0.0937691   1.6908119  -0.0687254
   0.0320317   0.1986981   0.0914476   1.5944505   0.6668704   1.5293418
  -0.7441955  -0.4096179   0.7362577   0.0791467   0.0760427   0.0277244
  -0.0035434   0.8664844  -0.4169910   0.5678403   0.4703519   0.0276729
  -0.1770051   0.2072314   0.4660633   0.3148075   0.4479173   0.8505307
  -1.4075681  -0.1853682  -0.9670151  -0.2286830  -0.1944563   0.0210649
   0.5888600  -1.0233020   1.4057658   1.5691164   0.3870518   0.4535765
   0.0054996  -0.3678285   0.4865205  -0.6526174  -0.2753958  -0.1017163
   0.5983503   0.3007172  -1.5010769   0.2184913   0.1983691   0.0167917
   1.1085241  -0.8969392  -0.7578268   0.4912120   0.8116784  -0.0461292
   0.0614491   0.3033055   0.3484929   0.1640991  -0.8233492  -0.0748761
   2.4019449   1.3524985   0.3240673   0.0502331  -0.1314912   0.0834608
  -0.1088094   0.9992592  -0.2093273   0.2673007  -0.0849096   1.8953917
   0.2940595   0.2009242   0.2714622   1.3213224  -0.7370967  -0.2995648
  -0.5475287   1.3257940   0.1072120   0.4878120  -0.0895622   0.3218370
   0.7861148  -0.5842391   1.1836467  -0.4726706   0.5697470   0.3720224
   0.1996478   0.0180127   0.0448927  -0.2835342   1.2472441  -0.2107210
  -0.0786592   0.2396700   0.5656304  -0.0114265  -0.0346371  -0.0245091
  -0.8092558  -0.4116390   0.6961470   0.3437367  -0.0117291  -0.9638709
  -0.0764018   0.0817474   0.1977383   1.0245087  -0.5829794  -0.4976326
   0.3166072  -0.6609732  -0.0581445   0.2118715   0.1702616  -0.2465053
  -1.5019345   0.2557227   0.3214102   0.2998630   0.9239008  -0.4960028
   0.0985164   0.4083721   0.0768756   0.0368273  -1.4479866  -0.1117464
   1.3727107  -0.1926039  -1.0100964   0.0647927   0.2701705  -0.2857020
  -0.1555957  -0.6529995  -0.6379728   0.4352450  -0.8143796  -0.0214486
   0.1891117   0.0001245   0.0078662   0.1417974   0.0328238  -1.0900986
  -0.7426528  -0.3528178   0.7851877   0.0507957   0.0406509   0.0004503
   0.0394763   1.2298350  -1.3996259  -0.2071960  -0.1995103  -0.2457664
  -0.2291475  -0.3124350   0.2201787  -0.4199669  -0.6626238  -0.4274994
  -0.2785443   0.5769109   0.0698615   0.0327222  -0.0647471  -0.0407751
   1.2186019  -0.9681019   0.2844389   0.8676327  -1.4919940   1.3851746
  -0.0751141   0.0463632  -0.0734915  -0.4283848   0.1217591   1.3382494
   0.9662783   0.1129564  -1.9288247   0.0950376   0.0718704   0.0423971
   0.0579740   0.8191625   0.1107125   0.3058695  -0.2650713   1.2510983
   0.0827195  -0.0853857  -0.0701655   0.6945685  -1.3764344   1.1408139
   0.2866548  -0.7141440   0.6299208   0.0634421   0.3999944  -0.1353562
  -0.6892452   0.6645511   1.4900838  -0.4408048  -0.1101841   0.9418719
   0.0185423   0.0964409   0.1671093  -0.1057548   0.8438047  -0.7476292
  -1.0614234  -1.1898465  -0.2483806  -0.0530895   0.1132706   0.0477034
   1.0985427  -0.6411541   1.2057656  -1.5544451  -0.3226208   1.4344658
   0.0014818  -0.3157585  -0.0420380  -0.3691531   0.0470412   0.6024793
  -0.9101866   0.0355223  -0.8233823   0.0544238   0.0451325   0.1894393
  -0.1115560   0.8265301   0.0941015   1.4877657  -1.5869995  -1.0876204
   0.0831041  -0.0329644   0.1238101  -0.1381474   0.8039003  -0.6371541
  -0.1826793  -0.8289003   0.6694099   0.3859966   0.3403058   0.0992142
  -0.6941419   0.9570239   0.8140650  -0.5651285   0.1837102  -0.8282456
  -0.0922711  -0.2042656   0.0398664  -1.1811620   0.7902095  -0.5879107
   0.5723112   0.1156657   0.4887325  -0.0518229  -0.0607701  -0.0936358
  -0.1502928  -0.1059520  -2.1582310   0.8415815  -0.0473590   0.3921224
  -0.1732464   0.0867973  -0.2281993  -0.3437064  -0.8593953  -0.7416739
  -1.6128222  -1.2040725  -1.0024105  -0.0973303   0.3554138  -0.1533133
  -0.2756784  -0.0102744  -0.9573227   0.8072333   0.7950280  -0.2767842
  -0.0615928   0.1367417   0.0479592   0.2431010  -0.4311449   0.3390269
  -0.6359369  -0.9684535  -0.7979864  -0.0652750   0.1982951   0.2914669
   1.0076593   0.8491148  -0.2249070  -1.3792267   0.4763970   1.0684191
  -0.1464170   0.2284259   0.0413203  -0.5952399   1.3961231   1.0319613
   0.2469704   0.6188520   0.3910837  -0.2835203   0.0814034  -0.1619926
  -0.4184075  -0.9413617   0.8525728  -1.4393163  -0.3150442  -0.2424149
   0.1320944   0.1058463  -0.2689578   0.4172277  -0.3870137   0.3620224
   1.1036536   0.0483598   0.0374503  -0.1412009   0.0200320   0.0583183
   1.0307413   0.1231190   0.7952149  -2.2121258  -0.6294549  -0.8049718
   0.2091186  -0.2026854  -0.1763589   0.1926553   0.1445333   0.2866589
   0.0722354   0.6671548   0.2855452  -0.0394126  -0.3004249  -0.0434032
  -1.1918427  -1.0324067  -1.3484733  -0.7334616   0.0510669   0.3898033
   0.1521881   0.3042084  -0.1879125   0.3518337   0.4076439   0.4766998
   0.1268864  -0.1806779  -0.7191293   0.3721471   0.0395680  -0.0598614
   0.1906862   1.9488786  -0.1882504   0.5219340  -0.2480235  -0.0106092
   0.0397171   0.2687260   0.1848894   1.5277402  -0.6546209  -0.3475056
   1.1596196   1.1161239   0.3574803   0.2861555  -0.0104921   0.1719647
  -0.5742054   1.1600134  -0.0493017  -0.7189739   0.2927454   0.1732610
  -0.1400678   0.1300461  -0.2167320   0.5328085   0.2571659  -1.2900182
   0.0425543  -0.3494731  -2.4597816   0.0760917   0.2368914   0.0696082
   0.6942272  -1.2937613  -0.8835747   0.4031605   0.8203850  -0.1413534
  -0.2758947  -0.4233748  -0.3041624   0.9254498   0.4177337   0.3880777
  -0.6413665   0.0210569   0.6756283   0.0737722   0.1574145   0.3272904
  -0.2149449   0.1118303  -0.1501264  -0.1215166   0.5046705  -0.0820755
   0.0074177  -0.0354143   0.0555559  -0.2622529  -0.2078793   0.2450301
   0.3244447   0.7591915  -0.1620491  -0.0748577   0.1142690   0.1085040
  -1.0230300   0.1012819   1.3001955   0.5642037  -1.0475395  -0.4306380
   0.0288868  -0.1594048   0.0670554   0.2587586  -0.4662122  -0.3900915
   0.1319340   0.9576906  -0.9720151   0.2356523   0.3591284   0.1503581
   1.3718611  -0.1674590  -0.2813160   1.0531931  -1.4390494   0.0664517
   0.3461668   0.1848254   0.1130602  -0.0258486  -0.4397563  -1.3532890
  -0.7856138   0.5237394   0.1556629   0.0905852  -0.2170712   0.0064378
   0.7406657   0.5136767   0.6960034  -1.4768029   0.3230555   1.0901453
   0.3222933   0.0969891   0.0904316  -0.4497379   0.4941401   1.1898388
   0.9443080  -0.6814523  -1.0883964   0.1230893   0.1215045  -0.0702682
  -0.2240218   0.2518785   0.3961374   0.5090914  -0.8471481   0.0195759
  -0.0854507  -0.0348059  -0.0207442   0.4938061   1.3979461   0.5013028
  -0.7154061   2.1872406  -0.0225310  -0.0008955   0.0354844   0.3534818
  -0.4174528   0.4515081  -0.0112064   0.3256790  -0.9752926  -0.8652595
  -0.1948934   0.0110104   0.0707638  -1.0781211   1.5516462   0.3097421
   0.3679082  -0.5032301   0.0836060   0.2389799  -0.0148615  -0.0925644
   0.2504704   0.0422758   0.1400292  -1.0167221  -0.8603496  -0.5701088
  -0.1348914  -0.2485380   0.0835181   0.3140664   0.6781620   1.7817695
  -0.2722847  -1.4325476  -0.4371902   0.1711725  -0.2072940   0.4169976
   0.3314300  -0.6493866  -0.6580554  -0.5443446   1.0117252   1.4715966
   0.4030795  -0.1287231  -0.0692408   0.5608907  -0.4522685   0.1765475
  -0.7358109  -1.3912761  -0.7911336  -0.0833275  -0.0800010   0.0322120
  -1.2710433  -1.0302863  -0.3885874  -0.0498625  -0.2888027   0.1174737
  -0.0816105   0.1425072   0.1064225   1.2795136  -0.4054186   0.8444465
   0.3197369   0.7655595  -0.1972524   0.1868014  -0.2024499   0.0266687
  -0.2692331   0.2294614   0.8289595   0.6083422  -0.5140145  -0.7261548
  -0.0238872  -0.0718924  -0.0820863  -0.0455470   0.0424147   1.2603670
  -1.1372281   0.3642092   0.1924261  -0.0917859   0.0766302   0.2097849
  -0.8400213  -0.0647553   1.7608064  -0.4899645  -1.5596055  -0.1050963
  -0.2797016  -0.1765438  -0.2133991  -0.8433887   1.2112708  -0.3681601
  -0.4764139   0.1896508   1.3882198   0.0527009   0.2528330   0.0132836
  -1.3539077  -0.1850599   0.3914344   0.5060425  -1.4341502   0.0974084
   0.0116814  -0.1789452  -0.0892038   0.0377473  -0.4757659  -1.8281951
  -1.0675551  -1.4022375  -0.2607208  -0.0310147   0.1302626  -0.0991119
   0.6279784  -0.2906640  -0.8946960  -0.2460729   0.2145085  -0.3168689
   0.0606031  -0.2617288  -0.0247698  -1.1539712   0.1066470  -0.0536313
  -2.0222826  -0.2050258   0.8228306  -0.1882612   0.0727974  -0.1126365
   1.4005408   0.6274353   0.9980519   1.4702548   0.1106536  -0.1450564
  -0.2511046  -0.0393813   0.1843935   0.3323485   0.1361087  -0.2376320
   0.6793877  -0.1191532  -0.3414222   0.2051579   0.1133742   0.0257946
   0.8718640  -0.1541481  -0.4406249   0.3277822  -0.2715166  -0.1814920
   0.1942663  -0.0635637   0.1800572  -1.5820847  -0.3134771  -0.1312713
   1.5940366   0.2959659   0.6275448   0.1548309  -0.2206220   0.1134222
   0.7453568   0.2796968  -0.0079445  -0.7002461   0.4667601   1.6729268
   0.0801072   0.3762509   0.0342519   0.0000103   0.1091818   0.0564005
  -0.3822955  -0.4905262   0.4933756  -0.0377080  -0.3211340  -0.1970281
   0.2995504  -1.7041178  -0.4386229  -1.3083446  -0.6432117  -2.0190201
   0.0713854   0.1588272  -0.4739868  -0.6814445   0.1224808   0.3674705
   1.2889222   0.2540876  -0.7397260   0.1147768   0.1100644   0.0897622
   0.1159317  -0.0902374  -0.5856282   0.1580676   1.2269369  -0.1544199
   0.0924377   0.0979942   0.1583243   0.3777508  -1.5120196   1.0174577
   0.5846046   0.0297565  -0.6856771   0.0578727   0.0481020  -0.0183329
   0.6505023   0.1680111  -0.0273006   0.3391254   0.7541173   0.9081762
  -0.0733699  -0.0654511   0.0430368   0.4119691  -0.5157159   0.5418411
  -1.0900571  -1.7647841   0.7281657  -0.1426635   0.1895308  -0.0044789
  -0.3054379   0.2474786   0.2523592   0.6329082   0.3817528   0.2869171
  -0.1363235   0.0088329   0.2046257   0.2358708  -0.2140690  -1.0402260
   0.2141843  -0.5170656   0.2621019  -0.0242832  -0.0228540   0.0982275
   0.0507243  -1.5467634  -0.3521757   0.2212420  -0.1063365  -1.5472010
   0.2521186   0.0021642   0.3060594  -0.3263105  -1.1620224  -0.9674559
  -0.7359836   0.6111740  -0.9872887   0.1527114  -0.1696334  -0.0841234
  -0.6060882   1.2364480  -0.1971046   0.0011599  -0.3672487   0.8309593
  -0.2063192   0.1033159   0.1127322  -1.0756024   0.2827299   2.2875888
  -0.5028408  -1.0831175   1.9615721  -0.0781388  -0.0336742  -0.0764505
  -1.3935760  -0.2514895   0.5598910  -1.5532641   0.0326992  -0.4722680
  -0.0266712  -0.4347725  -0.1521440  -0.6840928   0.7031099  -0.7581915
   0.0409409   1.8057736   0.1487751  -0.0651241  -0.2699927  -0.0961121
  -0.3269039   1.1546447  -1.3277760  -1.6260031   0.2779544   1.4928288
   0.0711089  -0.1458589  -0.1440858  -0.2139467   0.4702645   0.1699537
  -0.1698320   0.5186508  -0.0613380  -0.0794756  -0.0030350   0.4218189
  -1.2556112  -0.9246184   1.3841529  -0.5568849   1.4117635  -0.3219016
  -0.0224842   0.1176240  -0.1110751  -0.4808756   0.9623646   1.5470871
   0.3676722  -0.6272706  -0.3652839   0.1460212   0.1186407  -0.1622344
   1.4542460   1.0437274   1.1777593  -0.8633274  -0.5639985  -0.7967319
   0.0072992  -0.1664453  -0.1262108  -0.2651391  -0.2753248  -0.9052585
  -0.2105242  -0.2385683  -1.3326331  -0.1064465  -0.1064032  -0.0158099
  -0.0628282  -0.4809057   0.0916353   0.8126450   0.3706112  -0.3526424
  -0.1443838  -0.4493321  -0.0259923  -0.0841559   0.5337660   0.2142464
   0.5030153  -0.4944263   0.6071737  -0.1069013   0.1307833  -0.1057332
   0.0105989  -0.6351848   0.2413484   0.0188069   0.6531509  -0.3860805
   0.0587487   0.2534792   0.0444402   1.0444911   1.0226544   1.0438598
  -1.3557559   0.0397807   0.6185756   0.2199499   0.0627753  -0.0088046
   0.8172663  -0.0157377  -0.6279891  -0.4766797   0.7256696  -0.7978106
  -0.3493331   0.0225234  -0.2418167  -0.0281296   1.2045834   1.3005445
   0.1701990   0.3332575  -0.5494652  -0.0203379  -0.1845414  -0.1177075
   1.1353390  -0.2791344   0.8250143  -0.9080003  -0.5584385  -1.4698416
   0.0537311  -0.0043011  -0.0205593  -1.0701109   1.2264079   0.3368761
  -0.1081438   0.6072081   0.0325779   0.0130172   0.2932576  -0.2195825
   1.0115827   1.5506018   0.0478253   0.2765108   0.6662331   0.5618969
   0.2017619  -0.1368542  -0.3964477  -0.1017954  -0.1274637   0.4670205
   1.0446385  -1.4078335   0.6181906  -0.2754090  -0.3708687   0.1102465
   1.0359119   0.6322426   0.1555274   0.7895907   0.0170943  -0.3288834
  -0.0642108   0.1689296  -0.1422049   0.1823993   0.6518028  -0.1086325
   0.5559091  -0.9106443  -0.0626187   0.3776314  -0.2791522  -0.0513951
  -0.9545348  -0.2827422   0.8765862  -0.4396494   0.3477199  -1.1291915
   0.1469775   0.2849233   0.2090103   0.4435103   0.3940549   0.2485644
   0.4662159  -0.0913031   1.0910907   0.0546238   0.2193054  -0.0656303
   0.2418402  -0.1745382  -0.5393867   0.4549711  -0.3178581  -0.5023609
   0.3268369  -0.2093002  -0.1621452   1.3686690   1.2331311  -0.4399478
  -0.7541283  -1.4128854   0.5468359   0.1193166   0.4007476   0.0389490
  -0.7745005   0.4024582   0.1650405  -0.5056931   0.3934894   0.3675125
  -0.3422026  -0.0901754   0.0941459   0.5517672  -0.1082922  -0.5475662
   0.4229659   0.3923900   0.4998808  -0.1837474  -0.0267663  -0.0061397
   0.3349545  -0.6024413   0.4752910  -0.2720112   0.0123189  -0.3395006
  -0.1202897   0.0866218   0.2697999  -0.9692359  -0.5989957   0.8526757
   0.1056581   1.3193532  -0.5651374   0.1678420  -0.2581995   0.0889439
   0.0816800  -0.3436243  -0.4610556   1.2727150  -1.2184637   1.4591575
  -0.1914272  -0.1410718  -0.2387789  -0.2174046  -0.5502564  -0.6315514
  -0.0334998   1.1050254  -0.1869900  -0.0829087  -0.1218161   0.2806143
   0.3290437  -0.0180331  -0.4071280  -0.4644226   0.7334697   0.2062242
  -0.2933337   0.0319220  -0.0597916   0.4727069   0.4693870   0.0716307
  -0.7085224  -1.1799947  -1.2118375  -0.1357373  -0.1815250  -0.1331340
   0.2266808  -0.6232494   0.2763796  -0.7803450   1.8571715   1.0792903
  -0.3285170  -0.2870455  -0.0863992   0.0636661  -0.6503651  -0.6941014
   0.6641135   0.2884492   1.4103762   0.1654624   0.2049889  -0.0057033
   0.1342080  -0.6372204  -0.2215669  -0.8559199   0.5660847  -0.2086376
   0.1487675  -0.0073006   0.1609201  -0.6044491  -1.0030366   0.8999041
   1.1285614  -1.4535888  -0.8858474   0.0618241  -0.2840411   0.0599429
   0.4784760   1.1195801   0.4449575   0.8633017   0.2730838  -0.6022491
  -0.1061858  -0.2557219  -0.2613327  -0.8418987   0.9698448  -1.2431899
  -1.3347272  -0.6188920   0.3959499  -0.0044160   0.0682024   0.1567173
   0.0681358  -0.2046554   0.1891595  -0.2901303   0.5987682  -0.1937415
  -0.2660060   0.0585024   0.2363314  -0.8854236  -0.1380719  -0.5290850
  -1.1273291   1.5968623   0.3426538  -0.1512547   0.3656652  -0.4494437
   1.2195786   0.5607932   0.4660526  -0.4432124   1.3188524  -0.1443664
   0.1389158   0.2166715  -0.1670568  -0.4205492  -0.4158355  -0.6585864
   0.5804021   1.0558281  -0.5307841  -0.1699319  -0.0629309   0.2528992
  -0.9694694   0.7154748   1.0283101   0.1146383  -0.4133074   0.6561037
   0.3084646  -0.0399213   0.3900544   0.7038824  -0.4974321   0.2033375
  -0.3616988  -0.7102599   1.0328993   0.0996504  -0.1806249  -0.2398466
   0.6885662   0.7588129  -2.2944102   0.3908629  -1.2962703  -0.4689787
   0.3284790  -0.1828390  -0.2779779  -1.7797959  -0.8479080   1.5786673
  -1.3551016  -0.4156912  -0.2629315  -0.0158479  -0.0839272   0.1095405
   0.0867424   0.4153919  -0.3544099   1.1979121   0.8804238  -0.4989284
  -0.0947253   0.0166090  -0.1105904  -1.8540486  -0.5469660   0.3115232
  -0.0694240  -0.6269079  -0.0238439   0.1065630   0.0017544   0.2007659
   1.0493604  -0.6311382  -0.3580646   0.1527617  -0.1659420  -1.2199647
   0.1677931   0.1925700   0.2440457   0.5587633  -0.8035183  -0.6710794
  -0.2462726   0.5651644   0.0616092  -0.2648567  -0.2008541   0.2099216
  -0.6541695   0.1339314  -0.9546861  -0.3708509  -1.0699177   1.2543131
  -0.1140892   0.2318106  -0.1141812  -0.4610799   0.4180131  -0.5638168
   0.1034307   0.7274098   1.3018208  -0.1004991   0.3134572   0.0081192
   0.0997473   0.2110595  -0.1557593  -0.5346866   0.7573772  -0.9319374
  -0.1303180  -0.2803522  -0.2877624  -0.5527155  -0.5196121   0.0452094
  -0.7142153   1.0136106   1.1582139  -0.0813675  -0.2243894  -0.1978979
   0.6211511  -1.9289343  -0.2100729   1.2286705  -0.4495700  -0.6634971
  -0.2698051   0.0484468   0.0127333   0.5984527  -0.0090792   0.9608317
   0.1800129   0.3586479  -1.3158733   0.1070245   0.0036411  -0.3503293
  -0.1182546  -0.9368945   0.1721480   0.3079035  -0.2787331  -1.5027477
   0.2280046   0.1689533   0.3554257  -1.1236613  -0.1145155  -0.1555289
  -0.0827711  -0.3605903  -1.4905562   0.0476612   0.1035095  -0.1166259
   0.1696126   0.9257465   1.2745591   0.3152884  -0.0182717   0.4245502
  -0.0118076   0.1351911  -0.0936675  -0.7301702   1.7053725   1.1353301
  -0.5554478  -0.8150897   0.3323626   0.0986700  -0.2566760   0.0647753
  -1.7653145  -0.3182789   0.4351986   1.1451026   1.0255662   0.1319288
  -0.1053713   0.0274155  -0.3345067   0.2465113   1.1510862  -0.9192508
  -0.1959265  -0.7420886   1.8166076   0.2601273  -0.1540030   0.1296946
  -1.5568544   1.3244441  -1.0189921  -0.9333767   0.5248809  -0.8700312
  -0.2796887   0.2211684   0.0954884   0.2560156   0.2867946  -1.2764122
   0.4104294  -1.1067818   0.7262548   0.1024428   0.1572012   0.0692042
  -0.4932514  -0.5393586   0.6381306   0.4039272   0.4700940  -1.2908119
  -0.3871436   0.0351990   0.1880538   0.4790784   0.2806397   1.2526672
   0.2918396   0.7624385   0.4435867   0.1401673   0.0673429  -0.2169026
   0.3234996  -0.8576089  -0.8709844  -1.1433599   0.2468196   0.0333574
  -0.0424296   0.0314698   0.2483179   1.1729852   0.3488265   0.9564369
   0.5367652  -1.0337065  -1.4208302   0.0703043   0.0714429   0.3560148
   1.2650014  -0.1106920  -0.7542202   1.7929084   1.3710129   1.9070611
  -0.0876152  -0.3957160   0.1618432   0.7076509  -0.3221480   1.1520259
  -1.4764415  -0.0805098   0.0368626   0.1255127   0.0993826   0.1179763
   0.2340223   0.6763588   1.1969695  -0.3157943  -0.4626399   0.9012053
   0.0199214  -0.0898694   0.1877998   0.1656002  -0.0763063  -0.1426141
   0.2283480  -0.0003549   0.0550953   0.0352105  -0.2674505  -0.1118157
   0.8715068  -0.1932198  -0.1213047   1.1414906  -0.4621288   0.0945895
  -0.2452816   0.3979371   0.0314189  -0.2007079  -0.0728816   0.3891502
  -0.2182265  -0.0488983   1.0285257   0.1015887   0.0575204   0.1452483
   0.4367368   0.5700777  -0.6677902  -0.7212116   1.2084548   0.3940256
  -0.0507061   0.1854251   0.1565205   0.0096403  -0.3434021  -0.2211151
  -1.5004867  -0.2181480   0.0768670  -0.1390164   0.2990103   0.1376171
  -0.8176403   0.8805882  -0.8229995  -0.9009517  -0.7508968   0.7346643
  -0.0696489  -0.3907319  -0.3949218  -0.7795078  -0.6551389  -0.0949603
  -1.5668740   0.4646541  -0.0466560  -0.1724581   0.1274436   0.1354726
  -1.6443139  -1.0988874   0.9449131   0.2950250   0.7146417  -0.6249283
  -0.1462671  -0.1468232  -0.2868266   0.4009319   0.1811940   0.6915597
  -0.1737938  -0.4565066  -0.8373064  -0.2426526   0.0647901   0.1533317
   0.2526821   1.2124734  -0.3433617   0.0439688   0.8046406   1.4383999
   0.0200000   0.0744007  -0.0581125  -0.1265499   0.0868151   0.4303650
  -0.1055752  -0.1938775  -0.6767697  -0.4214561   0.1394310  -0.2519482
   1.5221381   1.3598607  -0.6914766   0.5471604   0.0295551  -0.2007852
   0.2301659   0.1362242   0.1865692   0.2447763  -0.7223704  -0.0613738
  -1.2468832   0.0031558  -0.6060485  -0.3498765   0.2300369   0.1166352
  -1.4769014  -0.0535380  -0.9060090  -0.8245871  -0.6073350  -0.0250576
   0.0028405   0.2163816  -0.0682871   0.0925169   0.5067439  -0.7706487
  -1.1690634   0.0933937   0.3693173  -0.0332856   0.1621278  -0.0825528
  -0.0523016   1.2574042   0.1412608   0.9104942   0.7302611   0.2881999
  -0.0257976  -0.1300902   0.1419964   0.4203110  -0.6666616   0.3382300
   0.1357202   0.6114751  -0.9207746  -0.0027623   0.3404901  -0.2072119
   0.9754863  -1.1187508  -0.9519240   0.1260490  -0.3841965   0.5995913
   0.1928916   0.1787559  -0.2453657   0.2666907  -0.7157203   0.7436008
  -1.7929965   0.8303444  -0.0063610   0.1386741   0.1454557  -0.0760644
   0.2136281  -0.7634822  -0.4305243   1.2671863  -0.9175045  -1.0743823
   0.2193202  -0.1007408  -0.0890172  -0.1502763   0.7001584   1.1820940
  -0.1515612  -0.2367261  -1.6826543  -0.2171611  -0.0467812   0.3227351
   0.9020121  -1.4703357   1.7896601  -1.0993994   0.3681468  -1.8226098
  -0.2541220  -0.2877539   0.0440364   0.5750154   0.9858468   0.1246958
  -0.7031750   0.1503040  -0.1918792  -0.0888604  -0.0486798  -0.1992573
  -0.5917128   0.5643992  -0.8411762  -0.0303946   0.2173806  -0.6852087
   0.0961454  -0.3019002  -0.2420641  -1.0495455  -1.6558050  -0.0219518
  -0.2934240  -1.1524987   0.0352467   0.0889092   0.2945896  -0.2209852
  -1.0423785  -0.3769916   0.5387011   0.1381309   0.6483304  -1.1492078
  -0.2269423  -0.3517427   0.2872673   0.2363244  -0.9217697  -0.5218104
   0.1744048  -0.9994625  -0.6304801   0.0386703  -0.2304842   0.1119081
   1.0242858   0.8794661  -0.1721615  -0.6911881  -1.5172871  -1.5769674
  -0.1558333  -0.0771166  -0.0121659  -0.8833793  -0.0585035  -0.1258689
   0.4028699  -0.1374479  -0.2126686   0.3792059   0.2850296  -0.1247670
   0.8159503  -1.8267444  -0.2673399  -0.2113289  -0.0810966  -0.3274751
   0.1224524   0.0882369  -0.1419771  -2.0328517  -0.8153111   0.4071466
   0.7634005  -0.6920816  -0.2578435   0.1746065  -0.2486845   0.0505831
   0.0952990  -0.2230297  -0.9608861  -1.0114840   0.4671217   2.5410194
  -0.1539728   0.3088268  -0.0863901  -0.8711429  -0.5506154   0.4111389
  -1.5486838   1.4732479   0.8952532  -0.1567834   0.0254554   0.0451121
  -0.4213330   0.3404537  -1.1223136   0.1985011   0.0952750  -0.2079832
   0.1260817   0.5134563  -0.2418236  -1.2063702   0.3916883  -1.0389049
  -0.1393710  -0.0078846  -0.5635601  -0.0403536   0.0410190  -0.0243353
   1.8335179   0.9186317   0.6814294  -0.2378586   0.9649685  -0.3977260
   0.1161879  -0.0764082  -0.0537495  -0.6092947   0.5290883   0.2710430
   1.7479523   0.0800838   0.6873925  -0.1531127   0.4081076  -0.3448036
  -0.3526404  -0.1761226  -1.0970545   0.2482936  -1.0663402  -1.8008450
  -0.1487562   0.0062198  -0.2862616  -0.0778483  -1.2671547  -0.4364363
   1.1313030   0.6315779   0.5021740  -0.0949428   0.2460029   0.0686434
  -0.6729049   0.7105176   0.7303388   0.5961292   0.6766699  -0.0551242
  -0.0566064   0.0848959  -0.0766918  -1.5109049  -0.3176501  -1.4573797
   0.2045432   0.4638740   1.0234140   0.3763362   0.0626319   0.1647663
   0.8010213   0.9031473   0.0860537   0.0008844  -0.7300604   0.0640307
   0.0325491  -0.0192771  -0.2482082   0.6864469   0.6680326   0.1915746
   0.9776827  -1.2421898   0.8714314   0.1177755  -0.0618492   0.2845260
   0.5352616   1.6394515   0.5850070  -1.2892377   0.3114682   0.3878448
   0.1130817   0.1355109  -0.0886789   0.1018008   0.3116140  -0.8340932
   0.7269305   0.0738661  -0.8520824   0.1167774   0.0899838   0.0462320
   0.4718965   0.3391691   0.1447204  -0.2712634  -0.6985448  -1.9020088
   0.2749695   0.0210267   0.1396092  -0.1769532   0.5999532   0.0849021
   0.7185205  -1.9370546   0.7649693  -0.0424422  -0.2805594  -0.1522593
   0.0666039  -0.2327680   0.4558663   2.3311722  -0.6891362   0.3721212
   0.3154604  -0.1770824   0.0698530   0.0091829   1.1039248   0.3209946
  -0.1999776  -0.3772205  -0.1341244   0.1722701  -0.0685371   0.0658604
  -0.4192435  -0.9301304   0.3978706  -1.3754367   0.7324947   0.4409165
   0.0526470   0.1870491   0.2362695  -0.4584825   0.2345613  -0.0217442
   0.0301204   0.1689016   0.7825228   0.2201673   0.1000809   0.1243462
  -0.6575687   0.9692846   0.2557346  -0.7114057  -1.1290199   1.2998539
  -0.2484120   0.0602108  -0.1302307   0.4364556   0.4313557  -0.4488725
   0.6808850   1.1247891  -0.1908404   0.1696396   0.0135527  -0.1688828
  -1.1776208  -1.1685878   1.3758059  -0.2546341   0.6749441   0.4539063
  -0.1216294   0.0473026   0.1559373   0.9649705   0.6358228  -0.9203337
  -0.2090845   0.8508765  -0.3715872  -0.1322905   0.3009977   0.1393274
   0.3911859   0.7521800   0.0576250  -0.3343073  -0.8609117  -0.2158017
  -0.0618487   0.0650684   0.0561400  -1.7542223  -0.7680390  -0.0126202
  -1.7721013  -0.9915112  -0.6925254  -0.1235456  -0.0546648  -0.0072661
  -0.1032621   0.5844758   0.1012512  -0.7629386  -1.0224079   0.9874445
   0.1590327   0.1919461  -0.1984262  -0.9349833   0.4443657  -0.9073317
  -0.9198105   0.5573992   0.8091308   0.3168559   0.0951800  -0.1889016
   0.3363919  -0.8860247   0.3786473  -0.9108053  -0.6359164  -0.0095771
   0.1015780  -0.0676571   0.2374169   0.1393018  -0.7241787  -0.9927591
   0.0274708  -0.2857610  -0.7382987   0.1912787   0.0012751  -0.0482866
   0.2106575   1.3180496  -0.6708827   0.0965370   0.4150606   0.1246266
  -0.1008844   0.1849093  -0.0448827  -0.4936993  -0.8385921   0.8885763
   0.5775669  -0.4721601  -0.2984125   0.1347578   0.2009547   0.1029175
  -0.6268926  -0.4973674   1.0272722   0.0347336   0.7897940  -0.5282203
  -0.2649131   0.0246021   0.0069407  -0.1291136   0.3513637  -0.7452300
   0.4606017  -2.0550365  -0.0792421   0.1183787   0.0503709   0.1933269
  -0.3972350  -0.0498690  -0.6222497   0.7967502  -0.3170984  -1.8504173
  -0.1645885   0.2898776   0.1956152  -1.3307196  -0.6725106   1.0778915
  -0.1942144   1.1445755  -0.1244679  -0.1104515  -0.1857338   0.2651901
  -1.3664922   1.5622942  -1.0872877   0.0789365   0.1785296  -0.0165913
  -0.1283075  -0.2472822  -0.0731435  -1.0692554  -0.2290690   0.0964330
   0.5381716  -1.0843402  -0.9831460  -0.0444044   0.0141044  -0.0422158
   1.7732719  -1.2974656   0.9746864  -0.2636989  -0.3015041   0.7638368
  -0.2539279  -0.3945480   0.1588480   0.1074546   0.6439899   0.6451833
   0.5972061  -0.2925926  -1.0327507  -0.1259584  -0.1370842   0.1473413
  -0.3796707  -1.1237363  -1.3433361  -0.0442821  -0.0696322  -0.5990567
  -0.2474956  -0.0803995   0.1289375  -1.0575334  -0.8750796   0.0412748
   0.0456961  -0.0529243  -1.2840695   0.0249822   0.0040020   0.0528287
   0.0068716  -0.6144131   1.3280231  -0.0446577  -1.0483766  -0.0587355
  -0.1553892   0.1163384   0.0142096  -0.5209614  -0.3739676   0.6366877
   0.0138154  -0.0878876  -0.1871454   0.1469103  -0.1398017  -0.1654686
  -0.9350279   0.0746263   0.2349942   0.2617723   1.3622051  -0.2658715
  -0.1330451  -0.0936583   0.0676119  -0.3176672  -0.6509375   0.9191955
  -0.9999809  -0.2433507  -1.7218628  -0.0248967   0.1848204   0.1771754
  -0.2433905  -0.3662643  -3.0355244   0.1251735   0.3683910   0.8995459
   0.1281699   0.0402889   0.0441917  -0.6005293   0.9510748  -0.1907295
  -0.5169370   0.2756164   0.8008165   0.0414448   0.0117667  -0.3035166
  -0.1791432   0.4304895   0.6438925   0.8813869   1.4968772   0.4948748
   0.1279281  -0.1280708  -0.1686523  -1.1632472  -0.2843663  -0.0433356
  -0.8203010   0.4470859   0.5170233   0.1935606  -0.2480637   0.1792541
  -0.3016868  -0.0282781   0.6056527  -0.0825850   0.2957770   0.5154483
   0.1176263  -0.2192307  -0.2225385   0.4037564  -0.2246477   0.8671445
   0.2811921  -0.4459052  -0.2128349   0.0963416   0.1155205   0.0962009
  -1.0324898   0.1864869   0.1102630  -1.3831576   0.6051997  -0.9920624
   0.1029672   0.1299661  -0.1676689   0.2869423  -0.5047821  -1.4637057
  -1.6192584   0.0719389  -0.6042226   0.2224333   0.0922368  -0.0190772
  -0.3206707   0.9640760  -1.0605377   0.3627655   1.0828164   0.5630171
  -0.4188132   0.0199272  -0.0440897   0.4833694  -0.2434958  -0.8738755
  -0.0917186  -0.0270160   0.4007841   0.1452164   0.0365143   0.2650181
   0.2099557  -0.7845605  -0.3447646   0.4394923  -0.9231653   0.0538502
   0.1104904   0.0207920   0.1269719   0.6048356   0.5197374  -0.4741189
   0.0596930   0.2017594   0.1124237   0.2566974   0.1153023  -0.1388414
  -0.1689959  -0.7031930  -0.0240934   0.1516346   0.4000134   0.1238620
  -0.1378979   0.2221849  -0.0617531   0.0710842  -0.5967622  -0.3740841
  -0.6514310   0.3143014   0.0250657   0.1868654   0.1469863  -0.0557518
  -1.4046906   0.1582513  -0.5699191   0.2716215  -0.2794552  -0.5927909
   0.0989952   0.1481440  -0.1400518  -0.9057308  -0.4604295  -0.7575718
   0.6332217  -0.1990629  -0.3769130   0.2237580  -0.1466607   0.1506693
  -0.6084078   0.5209070  -0.1963381  -0.4320868  -0.3845160   0.1362545
  -0.0185574   0.0724781   0.0412958  -0.8402790   0.7293927   0.7545208
   1.0005225   0.3390394  -0.9895872   0.1167195  -0.3572067  -0.1522634
   0.2762041  -0.5013347  -0.4366262  -0.3766829  -0.2861863   0.4773621
  -0.2177870  -0.1436002   0.0414618  -0.2867635  -0.7873044   0.3031429
   0.3859743  -0.3986125   0.7791068   0.2627598  -0.0611510   0.0353740
   0.7873066  -0.3437718  -0.8349209   2.2102191   1.0537285   0.7602774
   0.0410910  -0.0874072  -0.0975297  -0.0325228   0.5112748   0.9873133
  -0.4987036   1.1256661  -0.4343177   0.1838123   0.0243006   0.2008281
  -0.2642615   0.1635259   0.7592546  -0.7659139  -0.5489797  -0.5850922
   0.0205390   0.2660709  -0.1435918   1.1494316   0.0852488   0.0666906
  -0.4450091  -0.9223655   0.3185601  -0.1038957   0.1401011  -0.0644654
   1.5922056  -0.8131560  -0.7097618   0.9707391   0.8108422  -0.0215949
  -0.0519346  -0.4109182  -0.2523274  -0.0828071   0.4449560   0.8141280
  -0.7044082  -0.8161429   0.7371125  -0.1595354   0.3132893  -0.0005694
  -0.0055168  -0.7677672  -1.0172087  -0.3107025  -0.5402053   0.2066026
  -0.2408898   0.4519620   0.1123875  -0.6986827  -0.3604687   0.5795701
   0.0764621  -0.1093016   0.0468506  -0.2498752   0.4821888  -0.3971302
  -0.2491684  -0.8874503   1.0913591   0.6011287   1.9216994  -0.4824855
   0.0593434  -0.0465288   0.1432243  -0.7410855   0.6868131   0.8755520
   0.2030881   0.0242268  -0.2735087   0.2739177  -0.3300853  -0.0238285
  -0.2361603   0.6826397   0.6396295  -0.5273539   0.3654669   0.8426929
  -0.0295894  -0.1444643  -0.2076473  -0.9113871   0.0444419  -1.3386663
   1.3810369  -0.5250546  -0.5756029   0.1782844   0.2002717  -0.0895857
   0.7591271   0.0946312   0.5235193   0.3414991  -0.7190118  -1.5434140
  -0.0815532  -0.0172868   0.3354047  -1.7126831   1.0550897   0.4137540
   0.1321468  -0.2398618  -0.9662704   0.0193234   0.0619913  -0.1749944
  -0.4858926  -1.0292324   0.5912187  -0.7556260   0.7467987  -0.5812690
  -0.0800980   0.4969349  -0.3643736  -0.6838171   1.1799767  -0.3347831
   0.8837242  -0.1024941  -0.2679873   0.5035900   0.0970632  -0.0900710
   1.2143061  -0.2787804  -0.1758186  -0.4096924  -1.3687930   1.8083887
  -0.0906263   0.2286932  -0.2031791   0.4004689   1.5400174   0.1832507
  -0.3508395   0.9965783   0.5720341  -0.0146686   0.2607219   0.0927926
   0.5987118   0.4366549   0.7036469   0.1432691   0.8885367  -0.0947612
  -0.0111111  -0.1529960  -0.5997876  -1.1657168   1.0685837  -0.2814932
  -0.3661555   0.3188094  -0.1298443  -0.0789452   0.1081360   0.0405753
   0.4002912   1.1006712  -0.3458113   1.0855211  -0.2871800   0.8261112
   0.1238747  -0.0554259   0.1281230  -0.4981228   0.0440172   0.5726498
  -0.6683425  -0.9505823  -0.1870142   0.0898426  -0.0065149  -0.0728513
  -1.1334015  -0.6549698   0.1166712   1.3916696   0.2077985  -0.5735456
  -0.1476559   0.2521798   0.1272106   0.1811940  -0.0686045  -1.0383060
   1.5214118   1.8104883   0.6475674  -0.0575021  -0.1132689  -0.2060327
  -0.7460590   0.1229424  -0.5132000   0.2655010  -1.0804856  -0.4884660
  -0.3353886  -0.0277908   0.0805896   0.0959072   1.0509477   1.2159692
   1.3751281  -0.4649809   0.3407654  -0.1256523   0.3418137  -0.0623251
   0.2750492   1.1168311   0.2239962  -1.4242214   1.2984880  -0.3182536
  -0.2796839  -0.2684107   0.2647804   1.1911389  -0.8716049  -1.0457467
   1.2394036   0.5965477   0.2288098  -0.0707908   0.0914113  -0.2508806
  -2.0692477   0.8304133   1.8988581  -0.1944014  -0.0546125   0.3334757
  -0.0823264   0.0675410  -0.1976193  -0.6351503  -0.9129905  -0.9561205
  -0.6976428  -0.0054881  -1.7519391   0.2823844   0.3294649   0.2911655
   0.3434865  -1.0882834   0.7699888   0.6069872   1.3665168  -0.6293530
  -0.1175728   0.0702074   0.0428472   0.6679490  -0.1572859  -0.5029051
   1.1164360   0.2054674  -0.0114889   0.1139379   0.2053764   0.0135362
   0.0714681   0.1146047   1.1326101   0.2137642  -0.5843083   0.0012433
  -0.4526265   0.1412548  -0.1849973  -0.4167159  -0.4626612  -0.3264364
  -1.2609395   0.2033658  -0.0802450  -0.2141808   0.2145923   0.0364538
  -1.2644256  -0.0258455   0.8381199  -0.2386026  -0.0523368  -0.2694516
   0.3053360   0.1440855  -0.0536461   3.0053873  -0.4152218  -0.0384453
  -1.8416800   0.0996196  -0.8615669   0.1061677   0.1444104   0.1530668
   0.4234228   0.5199254  -1.1541564   1.3049629  -0.4806877  -0.0613864
   0.1166173  -0.1786304   0.0347480   0.7486226   0.7199869   0.0991194
  -0.6561511  -1.7249374  -0.0902206  -0.0814771   0.0224477  -0.1735134
   0.2779389  -0.5245901  -0.2302213  -0.9880942   0.2137332   0.8887199
   0.2465176   0.0647536  -0.2689889  -0.3467969   1.7552165   0.4818607
   1.4464114  -0.3259584  -0.3168857  -0.2564540  -0.0926177   0.0643030
  -0.7235744  -0.9118031  -2.4423797   2.0152991   0.2268450  -0.4112939
   0.3677097   0.2026663   0.2882633   0.1841801   1.5073901  -0.8038566
  -0.0547130  -0.1252324  -0.8519697   0.2038649  -0.0689619  -0.1080232
  -0.3526054  -0.9634580  -0.4704021  -0.3385689  -0.9161007  -2.0491903
   0.1566404  -0.3060996  -0.0236098   0.0891804  -0.2069646   0.4830379
   0.8884491  -1.0496643  -0.2296043   0.1273602   0.3356639  -0.0678318
   0.3864566  -0.6465910   0.8942765   0.9665962   0.9487664  -0.8273053
  -0.0764210   0.1992111   0.0867279  -0.3633156  -0.4341204   0.5586023
   1.7753961   1.1417586  -0.1905657  -0.5336850   0.2868746   0.0611768
   0.2050839   0.7635346   1.2703565   0.2325529  -1.2445153  -0.0738721
  -0.2586222   0.0162030  -0.5305097  -0.4943387   0.0494545   0.2969133
   1.9426961   0.5632579  -0.3283178  -0.0958746   0.0376307   0.2852888
  -0.4451717  -0.0460247   1.0405892   0.2059216   1.0152731  -0.1507970
   0.2936013  -0.1800863   0.0668672  -0.8373317   0.8242124  -0.8936001
   0.0009796   0.2773823   1.2895515   0.0185564  -0.4713570  -0.3130841
  -1.6150492  -0.1949122  -0.3704306  -0.1725379   0.9709342   0.0367340
   0.1331397  -0.0260116   0.1061563   0.2186134  -1.1325805   1.6787599
  -1.3504369   0.2158205   0.7869241  -0.0389269   0.0718203   0.2619968
   1.5167487   0.9701039   1.3520043  -1.2757150  -0.2125822   0.7827941
  -0.0319348  -0.0586481  -0.1058107   0.1670330  -0.1008778  -0.0391046
   0.4517442   0.4893085   0.9034396  -0.1110046   0.1107105   0.1713755
   0.3654148   1.4976456  -0.2216478   1.3224664  -0.5853448   1.0561002
  -0.1920400   0.2938085   0.0802790  -1.0134393   0.4938783   1.1250044
   0.4604718  -1.5511026  -0.4803475   0.1393735  -0.0265563   0.3091026
  -0.5905998   1.0967809  -0.0624573  -0.0928275   0.1104596  -0.7968573
  -0.1341280   0.1216893  -0.1019294   0.9130884   0.1460701   0.3766508
  -0.5046317   0.2247763   0.1549243  -0.0086952  -0.0991846  -0.1051207
   0.6033846  -0.8635071  -0.5576428   1.3004427   0.1886232  -0.3746175
   0.3291966  -0.0436762   0.0807142   0.2324704  -0.0722842   0.7628664
  -0.6211116  -1.0020700   0.6936299   0.1191611  -0.3598653  -0.0745739
   0.3923023   0.1044840  -0.0320854  -0.8498242  -0.8273556  -0.7324849
   0.1718849   0.0716905  -0.1077287  -0.3544870   0.8174800  -0.7286146
   0.3988365   0.2160580   0.8867301   0.0179581   0.0832486  -0.2624346
   0.2919120  -0.2387580   0.6213266  -1.1770103  -2.5314779  -0.3425018
   0.2064057   0.0154258   0.0564764  -0.5659052   0.6379027   0.2260564
  -0.3829755  -1.0447383  -1.0874594   0.0187189   0.0713123  -0.1086394
  -2.0600610   0.2070584  -0.8374493   0.6034983   0.6560016   0.5662175
  -0.3636175   0.0508903   0.0674313   1.2292030   1.0830286   0.6361428
  -0.4213993   0.2162969   1.4489982  -0.2725237   0.2393322   0.1048646
   0.6633020  -0.8749146   1.3119847   0.3638315   0.7069735  -1.3856560
  -0.0771993   0.0274336   0.1778390  -1.5566303  -0.4656628   1.0030679
   1.2667489  -0.3258091   0.0299167  -0.0104801   0.1978423   0.0002244
  -0.7970368  -0.4631242  -0.8238255   0.1639263   1.0735005   1.0400244
   0.1050027   0.0489962  -0.2818307  -0.5371383   1.2754778  -0.5351772
   0.5974684   0.3623617   0.6961770   0.1293002  -0.1212472  -0.1915488
  -0.2445429   0.6087029   0.1079435  -0.7571927  -0.4782190   0.0415852
  -0.2177808  -0.3858564   0.0335989   0.2293293   0.3052734   0.5477499
  -0.1781142  -0.2989665  -1.0832180   0.0767881  -0.2569888  -0.0500877
  -0.7617037   0.0212873   0.0353546  -0.2945486  -0.1569088  -0.4513106
   0.1053028   0.3442566  -0.3367514  -1.7799650  -0.2880882  -0.7735834
  -0.0769089   0.2009496  -0.1016132  -0.0620739  -0.1991085  -0.0142623
   0.6479905   0.9781239  -0.5686324  -0.2922534   1.1502831  -0.5352409
   0.2355505  -0.0246915  -0.2166220  -0.2712591   0.0933773  -0.4815260
  -2.1939824   0.5041703   0.9430075  -0.1362720  -0.2892912  -0.1032041
  -0.3473931  -0.8161594  -0.5749975  -0.0241602   1.8225733   0.2842794
   0.0399181   0.0188119   0.2869684  -0.3397192   1.0013907  -0.1411460
  -0.3268094   1.1050147  -0.7473238  -0.0116973   0.4327695   0.0886862
   0.5788195   0.5305344   0.6197377  -0.8586026  -0.8213487   0.4242474
  -0.1327086   0.1277639  -0.1884113   0.4953852   0.5214779   0.3398011
  -0.9456401   0.3712800   1.0642447   0.0921142   0.0422980  -0.1374802
   0.5838206  -0.2686366   0.3081288   1.3347011   0.1526910   0.3728737
   0.0134650  -0.1818364   0.3081141   0.0515391  -0.1987177   1.2892240
   0.2316131   1.1917440   0.7157964   0.4129137   0.0468463  -0.0568902
  -1.4915324   0.2705387   0.6628348   0.7630557   0.4490055  -0.6070982
  -0.1941900  -0.4707071   0.0298946   0.0816746  -0.9178228  -0.3751448
   1.1322815   1.8954114  -0.3564918   0.0864844   0.0501959   0.5012114
   1.5590363  -0.8178973  -0.6878119  -0.0836623  -0.6224162   0.5145931
   0.2767949   0.2728732  -0.3842480   1.1244574   1.6010445  -2.0038145
  -0.5731436  -0.6937331   0.7679678  -0.1682092   0.1196620  -0.3982508
   0.2636746   0.0586060   0.6529759  -0.4899939  -0.6145117   1.2523677
  -0.1346270  -0.1158187  -0.3834571  -1.4793206  -0.0711273   0.6814905
  -0.4629070  -0.0353604  -0.8723013   0.1007032   0.1032568  -0.0996648
   0.4566014   0.1763887   0.3044957   0.6845338  -0.3832770  -0.0263918
  -0.0894130  -0.1044844   0.0515826  -0.7594156   1.1189644   2.2964554
   0.5356789  -0.0308919   1.8095540   0.0624862   0.1673490  -0.0011876
  -0.1050764  -1.8927277  -0.4011138  -0.5402260   0.3088969  -0.0004934
  -0.4551862  -0.1291919  -0.0074489  -1.9522856   0.2796056  -0.1485537
   0.9219217  -0.3572340   2.1740637   0.2141056   0.2159622   0.1277103
  -0.0521772  -0.3220739   0.9374624   0.3425096   0.6549550   0.4690134
   0.4633234   0.0969160  -0.1075350  -0.7696906   1.0454034  -0.7220071
   0.8752096  -0.7617028  -0.5247838   0.0793564  -0.2876961  -0.1342903
  -0.2912472   1.6280018   0.5903563   0.7117872  -0.3031191   0.4598919
   0.0595912  -0.0011860   0.2191157  -0.8924869   0.9122892  -0.1385431
  -0.1646837   0.5787775  -0.7228270   0.3098750   0.0087218   0.1362921
   0.2995250  -0.5130810  -0.5879936   0.3557438   0.2933784  -1.2864398
  -0.0769637  -0.2459290   0.0246159  -0.9157274   0.0578762  -0.7650836
  -0.3491534  -0.1383252   0.4166306   0.2970386   0.0154072   0.1198315
   0.3170425   0.9398848   0.1260061   0.0698477  -0.6542788  -0.4378926
   0.2810346   0.3191373   0.2184258   0.8487625  -0.3786744  -0.4707501
  -0.1873639   0.3751740  -0.2022378  -0.2957197   0.1660603  -0.1652791
  -0.3827422  -0.9458927  -0.1971152  -0.0140021  -0.8364097   0.9943812
  -0.1409175  -0.1380382  -0.1021415  -0.2083469   1.6438605   0.4958907
  -0.4255750   1.0872551  -0.4284891  -0.1008741   0.0383861  -0.0571045
  -0.7072084   0.1346027  -0.1925592  -0.0825796  -0.4172644   0.5793974
  -0.3111252   0.1754753   0.2554212  -0.2995007  -1.4012170   0.3773789
   0.5327591  -0.2294151  -1.5573765  -0.2065693  -0.1663898  -0.2095802
   0.1015194  -0.0515232   0.0178189  -0.2143224  -0.6707212  -1.2619098
   0.1176307  -0.1292432  -0.0706401  -0.3593452   0.4674993  -0.6082345
   0.3151277   0.4713740  -0.0764046   0.1308004  -0.2608663   0.0013183
   0.6299981   0.2466153   0.8544693  -0.3466826  -0.8689454  -0.1881126
  -0.3845078  -0.0720412  -0.0642217   0.3982422  -0.1163090   0.7925019
  -0.7883828   0.2690968  -0.0101834   0.1476064  -0.0846357   0.0768115
   0.9184729  -0.7607328   1.1809866  -0.0065954   0.7769715   0.0429939
  -0.0996912   0.0155344  -0.0750918  -0.5230718   0.6928754   0.0881459
   0.8964372  -0.2298017  -1.3213049   0.1366960   0.1080058  -0.0655252
   1.3036773   0.2014482   0.9309458   0.6177859  -0.0930609  -0.6765083
  -0.0467339  -0.2110765   0.1080518  -0.1566771  -1.6254404  -0.2420707
  -1.2703787  -0.3849523  -0.7270049   0.1228453   0.0728540   0.0877191
  -0.4289206  -1.3798822  -0.6786673   0.1899267  -0.2991951  -1.0272261
  -0.0996690   0.1668952  -0.1350439  -0.4054630   0.0066008   1.6640803
  -0.7509016   0.5442169  -0.0850187   0.0442287  -0.1237065   0.1141023
   0.6437159   0.6727626  -0.4539173  -1.0046244  -0.1618851   1.0667733
   0.0475050   0.2437797   0.0323605   0.4249079  -0.1023024   1.3175224
   0.9259131  -0.0187099   0.1270052  -0.0539821  -0.1079941   0.2186324
  -0.4252725  -1.0202188   1.2793618   1.3856682  -0.9566283   0.0149725
   0.0677650   0.2340791  -0.2117934   1.6077796  -1.1208277   0.4963760
  -0.0398551  -0.0322617   0.1476642  -0.0566890   0.0880925   0.2757790
  -0.2542930  -0.9718000   0.4709708  -1.3813742   0.2946022  -0.0437873
   0.1477712  -0.1036104   0.0699689   1.2605273   0.0295511   1.3626026
   0.2562180   0.5280975  -0.2401035  -0.3719984  -0.1330504   0.0174208
   0.8283322  -1.3862091   0.3402267  -0.3752559  -0.4121887   0.4404896
  -0.0798403   0.1691983   0.0327944  -0.7480716  -0.2448882   0.5845115
   0.3767297  -0.1182688  -1.0360633   0.0866880   0.1089621  -0.3459169
  -0.4493667   0.0035396  -1.1384158  -0.0424597   0.9774505   1.1600747
  -0.0706927  -0.0080296  -0.1795995  -0.0095701  -1.5243828   2.0035284
  -1.0113754   1.2765709   0.2810810  -0.0238208   0.1326655  -0.3347185
  -0.2756380   0.1925364   1.5929737  -0.9494624  -0.4446323   1.2573020
  -0.2190921  -0.1345994   0.0706385  -0.0524448   0.1957600  -0.4554379
  -1.2442306   0.2883337   0.5082411   0.0027319  -0.0532526  -0.0069264
   0.7185411   0.4002092   0.1943482  -0.5286314   0.3854544  -0.1559703
   0.2310258  -0.0202282   0.0013876  -0.6506089   0.2521292   0.1463938
  -0.0603661  -0.2830403  -1.0713893   0.3205238   0.1091081   0.0724817
   0.2556780  -0.5721592   0.5382906   1.2831905   0.3038096   0.0935809
  -0.5087211   0.0811117   0.0775383   0.4865295  -0.0595488  -0.5730547
   0.1690133  -1.9012914   0.2710128  -0.1349753  -0.0680876   0.0998886
   0.5533854  -1.1229228  -1.3790885   1.2745930  -1.0199920  -0.0760659
   0.3827235  -0.0822658  -0.0777134  -0.2088166  -0.4168330  -0.1905687
  -2.5669773  -0.1403698   0.4554884   0.0727064  -0.0374684   0.0570067
  -0.4649589   0.9456807   0.3820308  -1.6480497  -1.0669109   0.0668071
  -0.2285402   0.0202032  -0.1627429   0.2779618  -1.3348874   0.8007364
   0.7215984  -0.4915163   0.9405719  -0.0310260   0.3175708   0.3393517
   0.1794629   0.9646828   1.0731388  -1.4566268   1.1193846   0.2962479
   0.0302505  -0.0498835  -0.0848264  -0.2449050  -0.2474180   1.9060397
  -0.9665778   0.5736064   0.1690693  -0.0558368  -0.1221037  -0.1052776
  -1.4823084   0.1220838  -0.9937629  -0.0536391  -0.9294274  -0.5434220
   0.2165127  -0.0188674  -0.4237879  -0.5706803  -0.2172901  -0.4148360
  -0.1658074  -1.0938214  -0.6334177  -0.2531890   0.2169165  -0.0859714
  -0.5617998   0.4923186   0.4441180   1.1557405   0.5001948   0.0085808
   0.0474536   0.2785615   0.0938091   0.4718229   0.5496183   0.5358121
   0.2988229   0.5642505   0.0992779  -0.2028800  -0.1364390   0.0707125
   0.1575732   0.1570955  -0.2232035  -1.2246827   0.1401464   0.1070288
  -0.0440972  -0.2488861   0.0199231  -0.0216900   0.1478116  -1.2537168
  -0.8465129   0.5432907  -1.8010672  -0.2010475   0.0191472   0.0880685
   0.1244376   0.6156486   0.2533790   0.1459577  -0.3460736  -0.7079149
  -0.0496987   0.2499707  -0.0698119   0.1645162   0.0544232  -0.7364477
   0.8792013   1.0179129  -1.3758130  -0.0791497  -0.3612566   0.2683219
   0.7587689  -0.3189981  -0.9487123  -1.2516804   0.5192258   0.3380778
   0.1307914  -0.6086872   0.1610169  -0.5000227  -0.3228956  -0.6598882
  -0.2954588   1.6281384   0.8177271  -0.1745797   0.1828425  -0.2253019
   0.6810415   0.0843345   1.2724628   0.8985632   1.4582633   0.2628737
   0.1604282  -0.1242706   0.1235700  -0.2540686   1.1231916  -0.5548230
  -0.7875186  -1.2983966   0.3115288   0.2440565  -0.1702441  -0.1760704
  -1.6634568   0.0477641   0.7363726  -0.5153598   1.0425216  -1.0166236
   0.3944055  -0.1427306  -0.2686876  -1.2647855   1.0812480  -1.4087809
  -0.2943261  -0.7594154  -0.8030074   0.3489534   0.2720448   0.0688450
  -0.6350550  -0.5202618   0.7307867   1.1333441   0.9804382  -1.2164588
   0.0154576   0.1710530  -0.3695285  -0.3083037   0.3809392   0.0904226
   0.7276097  -0.8974962   0.9848100  -0.0855269  -0.1439761   0.0319919
   0.3957573  -0.9903727   0.4807362  -0.6562008  -0.9101971   0.4094746
  -0.1026604  -0.2408364   0.3625954  -0.7236831  -0.2533906  -0.0389827
   0.0196951   0.2646444   1.3561529  -0.1481276  -0.1006959   0.2033421
   0.2846380   0.1475763   1.5925196   1.8694878   0.4489554  -0.0561154
  -0.0952482  -0.0725358  -0.0386010   1.1824334   0.1055277  -0.3862388
  -1.1251833  -0.1283472   0.4924051  -0.0347314  -0.0339557  -0.3385084
  -0.0738290  -0.0599546   0.1525699  -0.7475896   0.4365606   0.7093731
   0.0410487  -0.1976757   0.2436638  -0.3825280  -0.0514833  -0.4595174
  -1.3906963   0.5578172  -1.4000859   0.3830582   0.0261681   0.0153596
  -1.2559853  -0.9970191  -1.2723999   0.4332490   0.3615955  -0.1841828
  -0.0319253  -0.3587047  -0.0465443   0.1504927  -0.4635503  -1.3717558
   0.7678956   0.0026021  -0.3283378   0.0444696   0.1180192  -0.2389104
  -1.8713793  -2.0784130  -0.9122493   0.4629453   0.4895957  -1.3678271
  -0.3180083  -0.1698622  -0.0517755  -0.5888543   0.0122891   0.0033360
   0.4573765  -0.6851875  -0.2596720  -0.0236004   0.1579005   0.0512084
   0.8438346   1.5750214  -0.5152627  -0.8177816   0.5102552  -0.4960355
   0.0023293  -0.0682464  -0.0379134  -1.7014527   0.8938732   0.6923145
   0.0552932  -1.0432928  -0.9763204   0.2292350   0.0826828   0.1024975
  -0.5665440  -0.2615865  -0.8753126  -0.7298092   0.1008785  -1.3459024
   0.1457225   0.4140338   0.0307065  -0.4130861   1.4925232  -0.8934371
   0.4655501  -0.7147896   0.4406704   0.0862434  -0.1472405  -0.0431724
  -0.6941112  -0.6256998   0.3272473   0.8762158  -1.2023027   1.5060673
   0.1857189  -0.1001240   0.1466673   0.5185273   0.1767883   0.2701040
  -0.4176370   1.3379549  -1.4986339  -0.0922749   0.1256245  -0.0615452
   0.3473725  -0.6522130   0.8863679   0.0412225  -2.1788826  -0.0753800
   0.1333206  -0.1902697  -0.0048070   0.6289412  -0.2108732  -0.2790948
  -1.0169744   0.1457608  -1.0127505  -0.0246481  -0.1692677  -0.1854373
  -0.4145219  -1.6119331   2.2714741   1.1624947   0.4002689  -1.3970355
  -0.2166938  -0.0093306   0.3651432   0.7699336   0.8771561  -0.4246937
   0.0737460  -0.3573812  -0.7550489  -0.0344219  -0.2343158  -0.1788920
  -1.0138309  -0.2481944   0.7866359  -0.1865435  -0.2530801   0.1556240
   0.2054185   0.2982011  -0.0701525   0.3051655  -0.4418586   0.8733432
  -0.0268649   0.9380977  -0.6879566  -0.0883149  -0.1386628   0.0041017
  -1.7399242  -0.4369576   0.3156292   1.6705153   0.2010964   1.1625638
   0.2078407  -0.0991345   0.1579849   0.3613603  -0.1100152  -0.6791131
  -0.3857999   0.5356624   0.9100620   0.1657541   0.1460948   0.1970538
  -0.1705411  -0.4906997   0.1684421  -0.8908854  -2.0928416   0.3480740
   0.2493140   0.1672805   0.2426079   0.1859324  -0.2125077   0.8978593
   0.5183638  -0.9479237   0.1955971  -0.0893000   0.1174091  -0.1180848
  -0.7835424   1.2869827  -0.7360272  -0.6899471   0.6860272  -1.3147405
   0.2485013  -0.0068328  -0.2649356  -0.1048226   0.2138837  -0.8348761
   1.9302766  -2.1954558   1.3234549  -0.0329278   0.2597964   0.1092491
  -0.2065325  -0.2402651  -0.6560462  -0.3201291   0.4020647   0.7988584
   0.1402185  -0.0640197   0.0818320   0.3672916  -1.2951577   1.1768887
  -1.7423748   0.0999175   0.9304536   0.1950140  -0.0380683  -0.0426074
   0.2026796   0.3847256  -0.2704581  -0.9448980   0.2483218  -1.9049399
  -0.3681197   0.3390879   0.3168099  -1.5306090  -0.0733628  -0.1677763
  -0.1266132   0.9149982  -0.9462574  -0.0404023  -0.2038578   0.1236665
   0.9290103  -2.4859841   0.5245591   0.3153678  -0.1820492  -0.7093974
   0.3797190  -0.0034234   0.4410695  -0.6475029   0.7513008  -2.0906651
  -0.6372439  -0.5246150   1.9812270   0.2318813  -0.1140571  -0.3239777
  -0.1739980  -0.6248922   0.1398496   1.5161346  -0.7356129  -0.2743740
  -0.1128643  -0.4418602   0.0742749   1.0450652  -0.2926435   0.3420030
  -0.9495468  -0.5653571  -0.1405671  -0.1330330  -0.0274566   0.0341419
   1.1962618  -2.3626232  -0.1865505  -0.6979024   0.6708187   0.3424269
  -0.1141651   0.0480653   0.0566931  -0.4886009   0.0285799  -0.0547699
   0.5334243   0.3674217  -0.4592209  -0.0852490   0.0978481   0.0205759
   1.3749776  -0.0418883   0.0604884   0.5168183  -0.0747062   0.5804663
   0.0600942  -0.0269717   0.0210736  -0.7702883  -0.2281563  -0.3827628
   0.9599449  -0.7758986   0.1994551  -0.1978088  -0.0972184  -0.1829192
  -0.2466649   1.0860132  -0.6966122  -0.7255186  -0.1616298   0.1112292
   0.0009619   0.0228713   0.1733442   0.4407410  -0.0206573  -0.2417250
  -0.2402694   0.6491532   1.2234964   0.0894078   0.2333686   0.0826720
   0.2434693   0.9348843  -0.6385989   1.5182455  -0.2320963   0.9856535
   0.1332928  -0.2036364   0.0143178  -0.5107378  -0.2686226  -0.0998482
   1.8157926   0.9469181   1.7507063   0.0498238  -0.2035322  -0.4430511
   1.2294143   0.1456451   0.9451775  -0.0667887  -0.4855457   0.0138923
   0.0103589  -0.2657410   0.0304969   0.5859630  -1.2880968  -0.0391031
   0.1630281   0.0782395  -0.2938264  -0.2076213  -0.2068211   0.1228033
   0.0022114   0.0353517  -0.1185556  -0.6116591  -0.9244609  -2.4625397
  -0.0619754   0.0427398   0.1043166  -0.6547579  -1.4845415   0.1673075
  -0.9948972   2.1530423  -0.6971556  -0.3474380  -0.1711243  -0.3123772
  -2.0665686   0.3249975  -0.3935006  -0.6557220  -0.3555096  -1.1090120
  -0.2311350   0.4509339  -0.0934977   0.7337554  -0.3882013  -0.0979943
  -0.0880062  -0.5026554   0.5322397   0.1976090   0.1070566   0.0617963
  -1.2878430   0.0052737   0.5763021  -1.3083954  -0.4162781   1.1797198
   0.0648368   0.3703573  -0.0295525   1.3666393  -0.3578570   0.0839136
   0.0860944  -0.6453362  -0.9519429  -0.0712407  -0.1485398  -0.1434372
  -0.5742918   0.1465660   1.0286720  -0.7777181  -2.2329423  -0.0653667
  -0.1441790   0.4351133  -0.0585442   1.8294309  -0.2613100  -0.2007072
  -0.8978723   1.0457933   0.3862248   0.0400443  -0.1183664   0.0882319
   2.0331645   0.7622986  -0.9917307  -0.0196981  -0.8442448   1.3939291
   0.2950576   0.0322632   0.1816471   0.0431739   0.2545885   0.4690876
  -0.6216801   0.9189385  -0.1151634  -0.1517941  -0.1279920  -0.1254770
  -0.2416785  -0.8258870  -0.0106726   0.3303675  -0.6265791  -1.5053273
  -0.2593529  -0.0038213  -0.3004040   0.3881431  -0.1468984   0.6141737
  -0.8027077   0.5970011  -0.0129320  -0.1197821  -0.0444477  -0.2287553
   0.9391602  -1.1972471  -0.9490843   0.1581658   1.8934685   0.7400771
   0.2160840  -0.0475878  -0.1791615   1.6549323  -0.8039927   0.3659874
  -0.0244741  -0.1790966  -0.6508715  -0.1547252  -0.3027657  -0.0279576
  -0.1088605  -0.9725310   0.0135041  -1.2738656  -0.5190073   0.9878343
  -0.0615258   0.2959268   0.1394448   0.8821294  -0.0711910   1.7659926
  -0.2351559  -1.0825197   1.3355858   0.1558056   0.0059091  -0.1708653
   0.2178406   1.2679843  -0.2821784   0.7000375  -0.7844501   0.8649977
  -0.0488180   0.0878526   0.0969933  -0.7357800   0.8566999  -0.2626159
  -0.4250449   0.0988599  -1.3644353   0.0180077  -0.1685561  -0.2120871
   0.1573698  -1.4004537  -0.7433456   0.9033005  -0.3162885   0.0956636
   0.0244568  -0.0495821   0.2666331   0.0218643   0.8616052   0.1134546
   1.7518294   0.1231358  -0.1859216   0.0815235   0.2396037  -0.1356727
  -0.6132641   0.6984189  -0.6103250   0.3441992  -0.0255735  -0.6661333
  -0.1916740  -0.0444016   0.4587944   1.1432956   1.1929563  -0.1048743
  -1.5411949  -0.7245650   0.0053907  -0.1473649   0.2010471  -0.0224522
   0.5404325  -0.9708697   0.1647521   1.5445628  -0.2514002  -0.8192009
  -0.0237015  -0.0492731   0.0545938  -0.3456227  -0.0149257  -1.6827854
  -0.7042145   1.0907549   0.3571429  -0.2617836  -0.2593618   0.2077801
   0.6044352  -0.7407640   1.4944446   0.4614779   0.6228996  -0.2317857
   0.2871965   0.1231540   0.1447179   0.4489139   0.1632969  -1.1140621
   0.0538159  -0.6767066   0.0057885  -0.0631128   0.3326219   0.3516990
   0.9742893  -0.0180349  -0.0541744   1.4522821  -1.9847175  -0.4594575
   0.2447722   0.1359686   0.2443339  -0.6129589   0.4201320   0.3915351
   0.8236730  -0.8253885  -1.1096452   0.1541433  -0.2350855  -0.5929272
   0.9263568   1.0715277   0.2100551  -0.5208900   1.3305529  -0.0698162
   0.0293589   0.7286207   0.0922350  -0.7717711  -0.3447524   1.5484756
   1.3145694   0.9231989  -0.6002032  -0.0954150   0.2811513  -0.2779019
  -0.5335847  -0.5077349  -0.8179385   0.2630253  -0.1889049   0.5281382
   0.0138106   0.1254618   0.2533381   0.6911590   0.3170571  -0.2981057
   0.1343615   0.1494966  -0.6676174  -0.2041276  -0.1002009  -0.3247151
  -1.1679789   0.6926516  -0.1943354   0.8673526   0.3137435   0.8961027
  -0.0640795  -0.1855035   0.0825742  -0.1853052  -0.9628189  -1.2411561
   0.1188610  -0.0814063  -0.5620016   0.0410169  -0.0497282   0.3642046
  -0.3432495  -0.5788167  -1.4536206   0.9383982   1.1843033  -0.5073140
   0.0910249  -0.0366056   0.1923754   0.8080916   0.0088691  -1.2746556
  -0.0785924  -0.9056390   1.6046063   0.3016931  -0.2528384   0.1341905
   0.4001702  -0.1120829  -0.7170123   0.6120480   0.6501060   0.2505367
  -0.2864870  -0.3861389   0.1478205  -0.5849084  -0.7238736  -0.5820741
   2.1843941   0.0558568  -0.3693552   0.0766803  -0.0615743  -0.2028941
  -0.0671151   0.4550130  -1.1279814   0.1101162  -0.8337423   0.8110018
   0.0567333   0.2726814  -0.4277739   0.4006490  -0.8715277   0.1787210
   0.7312595  -0.5312889  -0.0453261  -0.0261102   0.2039703  -0.1224547
  -0.6913448   1.3511096   0.7154141   0.0274760  -0.7122470   0.7389870
   0.0203346  -0.0876457   0.3496430  -0.2359279  -0.0591002  -1.4144615
   0.1056170   0.1249357   0.6231190   0.0053564   0.3867503   0.1396468
  -0.3460698   0.3195453   0.0795517   2.0458577  -0.3389477  -1.5241586
  -0.0206227   0.2480814   0.0070687   1.1454500   0.9166832   1.6160809
  -1.2143072  -1.3146056  -0.3553494   0.1071076   0.2225883   0.0534260
   0.5642425  -0.1590228   0.1299292   0.6840244   1.0256555   0.2070766
   0.2031927  -0.0332986  -0.0310767  -0.2728272  -1.0090995   0.7347996
  -1.4169933   1.3607739  -0.3454160  -0.0223237   0.0455114   0.0319670
  -0.9101461  -0.7673288   0.0466268   1.4469364   0.6822749   0.0183232
  -0.2882671   0.0688783   0.3302496  -0.1741467  -0.3856523  -1.0249050
   0.1478266   0.1775743   0.5408486   0.2783215  -0.1684128  -0.2453400
  -0.0115882  -0.4847875  -0.9909783   1.1854063   2.7186375   0.3287503
  -0.1042216  -0.1986978  -0.1916017  -1.2691875  -0.6145157  -0.2194969
   0.1758324  -0.6350016  -1.2959945   0.0567499   0.3260905  -0.0706486
  -0.3622231   1.9980803  -0.5849798   0.5947690  -0.6467242  -0.4613879
  -0.0226746  -0.2263900  -0.1008803  -0.6862006  -0.2198550  -0.8721313
  -0.9906616   0.1286063   0.5267066   0.2678671   0.1889433   0.1164034
   0.1523806  -1.1096638  -0.0757638  -0.3882495  -0.0160381   1.7169669
  -0.1635379   0.1136891   0.1631512   0.6810669  -0.7751315   0.7035339
   0.9903007  -0.4085506   1.2870759   0.1437978   0.0334179  -0.0980615
  -0.5380377   1.3775266  -0.4805945   0.1777306  -1.1448510  -0.6615055
   0.1943014  -0.0942562  -0.2356015  -0.3849289  -0.0747175  -0.3564283
  -0.5283177  -0.7174591  -0.6792377  -0.0302558   0.0727767   0.2674103
   0.9919394  -0.2575624  -0.8759400   0.0158351  -0.3550131   0.3919794
   0.4872096  -0.1251694  -0.0438457   0.9921023  -0.0864125   0.7870715
   1.4625328   1.1732981   1.6402472  -0.0583761  -0.1109570   0.0210151
  -0.8291665  -0.3329405   0.1753244   1.1707520  -0.0885188   0.3022332
  -0.3204898  -0.4550719   0.0541620   1.2749753   0.4643508  -0.5969236
  -0.3341285   0.6416235   0.1044479   0.0847867   0.0973299   0.2469591
  -1.4181023  -1.4247210  -0.3185577  -0.6941705   1.1484874  -0.6759458
  -0.2414604  -0.0949933  -0.0486027  -0.0445461  -1.0003458   0.3668392
  -1.1583027  -0.7369281  -0.9580321  -0.3642418   0.3092309  -0.3730368
   0.3482201  -0.7599298  -0.3454753  -0.4297668  -0.1481098   0.4598498
  -0.2088326   0.0696329   0.1014111   0.1498293  -0.0213641  -1.0543264
   0.7814175  -0.4608671   0.4420733   0.1112229  -0.2084477  -0.2727914
  -1.0442556  -0.9518313  -0.1893956  -0.4480662   0.6354702  -2.2382696
  -0.0360614   0.0738927   0.0231759   0.0462382   0.0498724   0.4723968
  -0.7334320   0.7597830   0.4795632  -0.0499119  -0.1626989  -0.0686661
  -1.1551150   0.2136954  -0.1306016  -0.8292633   0.6802442  -1.6362997
  -0.2430414   0.3115537  -0.1489898   0.7130678   1.4807589  -1.0209044
  -1.1466019  -1.6271276  -0.2388759   0.0815839  -0.1774525   0.1151613
  -0.6071725   1.1685780  -0.3213146  -0.1069347   0.4153216   0.4797101
  -0.1367314   0.1073285  -0.1749873   1.1665932   1.3739560  -0.1418682
   0.2128938   1.0947703  -0.6623031   0.1489925   0.2531256   0.0780985
   1.3290046  -1.1839412  -0.0672785  -0.7605413  -0.4669972   0.9041238
  -0.1035953  -0.0868490   0.0852999   0.1082312   0.9749448   0.5198113
  -0.0143590  -1.7083950  -1.2159383   0.1926354  -0.0880944  -0.1313355
  -0.3490279   0.3696638  -0.4913912   0.4993427   0.0265735   0.3148815
   0.3144469   0.1684222   0.0670236   1.3521912   0.2272960  -0.9936643
  -0.8721795  -0.0609453  -0.2826378  -0.1237604   0.0227680  -0.1133704
   0.4164655   0.2000618   0.1360471   1.0199128  -0.0582837   0.3102707
  -0.2191354  -0.1261910   0.0504623  -0.0246502   0.2613968   0.6792066
  -1.0685291   0.3163713  -1.0825218   0.0568686  -0.1228760  -0.2067034
  -0.5260198  -0.1385296  -0.4660575   0.6344202  -1.4049841   1.3751546
   0.0079287  -0.1756062   0.0772026  -1.0481803   0.1396005   0.2375070
   0.2197061   0.2013012  -0.6396325   0.1078748  -0.0240123   0.0567201
  -1.0136503   0.8080668   0.0487363  -1.1718378  -0.4182690   0.6495019
  -0.3515347  -0.0196109  -0.0020469  -0.9121032   1.3408016  -1.3359219
   0.7631418   0.2048635  -0.3106416   0.0839095  -0.1099595   0.0023298
   0.3737206  -0.9201518   1.0873736  -0.7556165  -0.0581327  -0.0161507
   0.0839446   0.3312520  -0.2503291  -0.1450147  -0.3692783   0.2960542
   0.4663319  -0.1358875  -0.1071589   0.1464495   0.2871375  -0.0548136
  -0.2466326  -0.3353579   0.8538947  -0.8297370   1.0701602  -0.1443730
  -0.0572592   0.0937855   0.3741460   0.4556039   1.0304412  -1.1119785
   0.8313924  -0.1474890  -0.3835537   0.2897500   0.1523145  -0.0211334
  -0.0620951  -0.9026713   0.4322135  -0.0557828   0.2507527  -0.1560625
  -0.2079422   0.0600780  -0.0536061  -0.6633812   1.8925201   0.9148368
   0.6595733  -0.1359123  -0.3756956   0.1276965  -0.0437862  -0.0130223
  -1.7704377  -1.7586265   0.8069325   1.1997150   0.7003455  -0.1503470
  -0.3573470  -0.0754625   0.1928352  -0.7045532  -1.2961195   0.7282414
   1.2277788  -0.7800164  -0.6992502   0.1409362  -0.1438980  -0.0403702
   1.1385797   0.5836448  -0.7898912   0.3003530  -1.9784887  -0.2296349
   0.3472256  -0.2651252   0.2484275   0.4804117  -0.4295257  -0.2700229
  -0.4576775   0.8417462   0.4000019   0.1726399   0.0174902   0.2046332
   0.0016965  -2.0814281  -0.4623887  -0.5055696  -0.1444241  -0.0314722
   0.1341470   0.0348157  -0.1169525   0.8215104  -0.9411371   0.4986624
   0.7075093   0.5688217   0.1750376  -0.0071611  -0.1145666  -0.4635419
  -0.7540903   2.4935465  -1.3234938   0.5603023  -0.4489781   0.6397617
  -0.0501483   0.1934741  -0.0913701  -1.3336488  -1.6162711  -0.9870091
   0.2856027   0.6783851  -0.6316176   0.2432783  -0.1551149   0.2150790
   0.3390981  -0.8987014  -0.4064067  -0.3012361  -0.8520156   0.5113286
  -0.1881105   0.0293240   0.2513819  -0.0971704  -0.1097756   0.0475287
  -1.5373281   0.9922832  -1.4602357   0.0127289  -0.2260466   0.1808511
  -0.7029772   0.4461780  -0.2229097   0.5545653   1.3821250   0.1468772
   0.0165047   0.1345027  -0.1813193  -0.1665737  -0.0252594   0.2405919
   0.8274764   1.4103140   0.5785651   0.3003134   0.0387470  -0.0939676
  -0.4792817   1.2887819   0.3073021  -0.4471153  -0.5886282   1.5427037
  -0.3030762  -0.2103487   0.0613019   0.5209381   1.1127590   0.1224532
  -0.2230961   0.5645115  -0.6933671   0.0014850  -0.1093506  -0.2373174
  -1.1246686   0.6588862  -0.2737983  -0.8124228   0.3018547   1.4369794
  -0.0316056  -0.0049106  -0.0815643  -0.6480796   0.2003108   0.2155787
   1.7906359  -0.2944871  -0.2487427   0.1486593  -0.1262222  -0.0813667
   0.2335067   1.3584808   0.2003394   0.4449428   0.2724675   0.4580375
   0.1428396   0.3195851  -0.0504451  -0.2131001  -0.6009055  -1.8491414
   0.2213574  -0.1142299  -1.0133858   0.3400058   0.0637383   0.2849729
   0.1456193   0.5931720  -0.4728473  -0.6056727   0.5770953  -0.2774543
  -0.1338106   0.0485290  -0.1785376  -1.5619518   0.4657925   0.6420037
   0.8240036   0.1498562   1.8150891   0.1938733   0.0412743  -0.0221198
  -0.3052026  -1.3829274   0.3121773  -0.4884956   1.4226875  -0.4000742
  -0.1120573  -0.1134829   0.0201932  -0.6479613  -0.2027508  -0.0334057
   0.8011706   0.7964643  -0.3602297  -0.1117263   0.0631320  -0.4689563
  -0.6581163   1.2963470   1.2127655  -0.7910669  -0.4453000   0.4229725
   0.0256668  -0.0222820   0.1589796  -0.6180917  -2.1834168   0.9140189
   0.6346264  -1.0403472  -0.0376192  -0.1527527  -0.1062515   0.2510887
  -0.4052134   0.0464924  -0.5225674   0.5254548  -1.8746194  -1.1856842
   0.2420159   0.2047341  -0.0528630   0.5006707  -0.4681278   0.8060117
  -0.2097883  -0.0782799   0.1785569   0.0269994  -0.1209631  -0.0595226
  -0.2238286   0.6359524   0.8442938  -0.9301576  -0.6906666  -1.2512493
   0.2683480   0.2850933   0.1664568   0.0108486   1.9808105   0.6263648
   1.2733774  -0.4571885   0.4620922   0.2152455  -0.2341918   0.0435805
   0.1312915   1.0303209   0.0455108   1.4588081   0.0042289   0.3129846
   0.4100364  -0.1199217  -0.0041937   0.5133508   0.4594723   1.6733125
   0.3336878   0.8372505   0.0903200  -0.1741728  -0.3012653  -0.2402227
   0.2617798  -0.3542013  -1.1202689  -0.2013653  -0.3170656   0.4471266
  -0.1110217   0.2355226  -0.1077309  -1.1763877   0.0345642   0.4283853
   0.6979555  -0.6824864   0.6071352  -0.0930687   0.0384711  -0.4480866
   0.5494044   0.9931518   0.1187133  -0.5717739  -0.0388326  -0.2177891
  -0.1557024   0.1156855   0.0237011  -0.7399397   1.1035271  -0.5629712
   0.0027290  -0.4571763  -1.7533842   0.2529997   0.3173028  -0.0069346
   0.3354314   0.3890322  -0.0568163  -1.0679137   0.0238232   1.3826705
   0.0422205   0.3189137   0.0592996   0.5876385  -0.5178777  -0.1097169
   0.7148936   0.3082274   1.5825809  -0.5184734   0.1571091   0.0195526
   0.1607174  -1.5089321   0.1824660  -1.4523273   0.6297121  -0.6101925
   0.0727832  -0.0057276   0.4692547   0.7293349  -1.0560861  -0.3387016
  -0.1107932   0.6245950  -0.7309844  -0.2954134   0.2170400  -0.0372647
   0.9316872   0.1095184   0.6724332  -0.2461303  -0.9983082  -1.2674266
  -0.0159614   0.0816033  -0.2634055   0.1214121  -0.1764938  -0.0081371
  -0.6213185  -0.1370550  -0.7482213   0.1448828   0.1614988  -0.0881455
   0.7559941  -0.8567697  -0.3629168  -0.0273167  -0.3506447   0.4640628
  -0.2956277   0.0651304  -0.0964912   0.4278043  -1.6763853   0.1178938
  -0.4514884   1.5307912  -0.5830044   0.0926114   0.0921919   0.3254291
   0.6151893  -0.3282478  -0.5992219   1.1113966  -0.5583791   0.9531062
   0.0359165   0.2124705   0.1035126  -0.8267216   0.3693849   0.5335461
  -0.6126271  -0.6888826  -0.3969924   0.0517671   0.0274377   0.0948878
   1.7794679  -0.0239429   1.4063549   1.0981563   0.8352822  -0.4378218
  -0.1926176   0.0084147  -0.0755225   1.0393819   0.1601084   0.8628692
  -0.1279693  -0.3394488   0.1076502  -0.1551073  -0.1082042  -0.2390414
  -0.5158089   1.1133714   0.0811416  -0.0477276   0.5739200   0.2446081
   0.1856225   0.0398642   0.1168285  -1.2273000   1.9154581  -0.0067828
   0.8964850   0.1602380   1.0437948   0.0599136  -0.0728975  -0.4035505
  -0.3251658   0.0571431  -0.3979422  -0.3784885   0.0984776   0.6475707
   0.1926524  -0.0595995   0.0536168  -0.2591291  -0.1170516   0.1181690
  -0.2438120  -0.2288630   0.4774422  -0.3416471  -0.0674926   0.3390540
   0.2205675   0.5659772  -1.1007255   0.9732406  -0.6337116  -0.1302016
  -0.2559672  -0.0953236  -0.4306617  -0.4510677   0.4724350   0.4486107
   0.5845854  -0.6742423  -0.2175884  -0.2757764   0.1923797   0.0073193
  -0.1882149  -0.7780334   1.1206002   1.8414562  -0.9367567   0.6126965
   0.1056625   0.0189950   0.1691695  -0.0639768   1.2603391  -0.5523391
   0.5918474   0.7554081   0.6121126   0.4874640  -0.2286387   0.3196943
   0.4319351   1.1672976  -0.5664359  -0.5173602   0.2608354  -1.5704701
   0.2610773  -0.1085536   0.2233613  -0.6071182  -0.6549469   0.3396018
   0.4137813   0.0743424  -0.0859400   0.0920181   0.0731441  -0.0613965
   0.0385207   0.0296530   0.6408613   0.0275993   1.0140078   0.2796212
  -0.0351700  -0.0765882  -0.2384622  -0.4796060   0.6582074   0.6210603
   0.1748179   0.5019166   1.9589932   0.1732433   0.2033776  -0.1110312
   1.0651324   0.1886032   0.1107816   0.5299327  -1.0406942  -0.4215401
   0.2541384   0.0197409   0.0724491   0.4580365  -1.0237641  -0.8325018
   0.5342472  -0.3508904  -0.2678069  -0.4084649  -0.1271244  -0.4219771
  -0.4260224  -0.1096786   1.2073464  -1.2032324   0.3476854  -0.7135946
   0.3066194   0.1834389  -0.3434415   0.4997029  -0.8436527   0.8762834
  -0.3184468   0.8024452  -0.4885648  -0.3635215   0.4532712  -0.1556455
  -1.4001514   0.3606097   1.2368475  -0.1643342  -1.2815726   0.6982664
   0.0536066  -0.0536943   0.6299974   0.4259954   2.5883615   0.0456240
  -1.1521882   0.8804296   0.3723643  -0.4015431   0.0318693  -0.1526768
  -0.0406755   0.3135830  -0.6800056   0.3341489  -0.3897539  -0.0372641
  -0.2332931   0.1337006   0.0090632   0.3189020   1.5513997  -0.6364163
  -1.2010204  -0.9702634   0.9002786  -0.0925876  -0.2854526   0.2758824
  -0.7314708   0.5709369   1.0075053   0.9710252   0.4412310  -0.8806132
  -0.0901299  -0.0412163  -0.2240809  -2.3245878   0.1177812   0.6119701
  -0.1105759   0.1022253  -0.4119818  -0.2941271  -0.0028956   0.0501295
   0.7551984   0.7107352   1.9802670   0.1459442   0.2855862  -1.6040636
  -0.1580348  -0.4343863  -0.0018987   1.4096289   1.8095073   0.8394094
   0.6785872  -0.4142258  -1.1361438   0.1002125   0.2442105   0.3014213
  -0.1458646   0.1883153   0.7453614   0.2703163   0.0640208  -0.3735981
  -0.0856912   0.0092755  -0.2446754  -1.4253647   0.9881580   0.8400057
   1.8814157  -1.8460186  -0.0564894   0.0890794  -0.2472422   0.1043635
   0.6610162   0.7315772  -0.0067467  -0.9963728  -1.4058546   1.6404297
   0.0176922   0.2835520   0.1095779  -1.2618740  -1.3463446  -0.3548113
   0.3264880  -1.3060535  -1.1443622  -0.0895222  -0.0437197  -0.0342446
   1.3504034  -0.7784005   0.0486453  -0.7434742  -0.6701185  -0.3276919
   0.1716142   0.0711217   0.1230410   0.0076491  -0.0947337  -0.5297282
   0.0530812   0.0910203   0.7108269   0.0590529   0.3736145   0.0313294
   0.4109149  -0.7992201   1.0702349  -0.1076789   0.4650059   2.4658465
  -0.0735090  -0.1040082  -0.1404668   0.1867943   0.6326349   0.5813687
  -0.2591491   0.5347619   0.7310630  -0.0900123   0.0959549   0.1577797
   0.9938944   0.4373584   0.9218606   1.0605974  -2.0732312   0.7196257
  -0.0916770  -0.5678998   0.1693688   0.9590654  -0.1111509   0.1773338
  -0.8647522   0.4615951  -0.4777743  -0.1193529   0.3339608  -0.3013720
   0.3557360  -0.0759833   0.7648619  -1.0446388  -0.9048744  -2.1517324
  -0.0103485  -0.2974511   0.0916022  -1.3001422   1.0289451  -0.1374126
   2.1008995   1.3475651   0.5491514  -0.1178045  -0.0253419  -0.0812733
  -0.6489700  -0.0025488   0.5621814  -0.3950913   0.5008647   1.0627549
   0.3530813   0.0655899  -0.0941417  -0.3868762   0.6622369   1.0873054
   1.3547652  -0.9361545   0.5596721  -0.2292774   0.0752180  -0.1833524
  -0.1884343   0.6250553  -0.5496705  -0.9186440   0.9869390  -0.1409736
  -0.2927239   0.2015473   0.0881175   1.2989173  -1.5531787  -0.9452372
   0.6478855  -0.6715186  -0.4553643  -0.0132140  -0.1233907  -0.1173167
  -0.1177825  -0.5601450  -0.7384226   0.1658606   0.3286346  -0.3381978
   0.1184666  -0.0364586   0.2381985  -0.5750036   0.1697281  -0.4995341
  -0.1767263  -0.1434630  -0.4620647   0.0135633   0.2668425  -0.1604043
  -1.0460808   0.1793846  -0.9816305   0.8427663   0.0830560  -0.0045572
   0.1508146   0.1518232   0.2207983   1.2447444   0.3126447  -1.7799162
  -1.0440323   0.4397649  -0.3725151  -0.0754670   0.0525293  -0.3105444
  -2.0242047   0.6236755   0.0753310   0.2801027   0.5932492   0.9107179
  -0.3437298  -0.1941637   0.1500139   1.0451353   0.4143865   0.5313927
  -1.6220039  -0.9889483  -0.1306588   0.1136259  -0.0473356  -0.2822776
  -1.0395513  -0.7397239   0.1208845   1.8521188   1.4120486  -1.6519994
   0.0354518  -0.4816350  -0.2360950   0.3224307  -0.2835706  -0.4547445
  -0.5626354  -0.0633637   0.8492104   0.1934145  -0.0340656  -0.4738580
   0.5797378   0.2386093  -0.2726189   0.3120800  -0.2223137   0.6854506
   0.3127972  -0.0576528   0.0544935   0.5302360  -0.3724090   0.4158537
  -0.7734082   0.3992638   0.8103136   0.1802699   0.1884214   0.0141773
  -0.8012233  -1.5189606  -0.4761942   0.4236291   0.1341902  -0.5474201
  -0.0226179   0.1382711   0.3144387  -0.5052229  -0.9650463  -0.1578837
  -1.3513253  -0.0829765   0.8935630   0.2968488  -0.0901237  -0.0622722
   0.1716998  -0.4664772   0.8571979  -0.7697025   0.7152015  -0.3852524
  -0.0081917   0.0147091   0.0546207   0.0703756   0.1056059   1.1877650
   0.5151708  -0.4805902   0.1476581   0.1611179   0.1287570   0.2022882
   2.9396117  -0.6086170   1.5802977   0.1022649  -1.1828402   0.8034824
   0.0623286  -0.5769083  -0.3422581  -0.5197620  -0.8143030   1.5132622
  -1.2336820  -0.6040876  -1.1881133   0.1261096  -0.3210595   0.0435891
   0.8071633   0.8598993  -0.0920828  -0.7060387  -2.4229288   1.3917053
   0.0026946   0.0813473   0.4060784   0.7488059   0.6025510   1.3985748
   0.2763855   0.2577284  -0.8700871   0.0018248   0.0024025   0.0905591
  -0.7886574  -0.9798642   0.9279455   0.3394203  -0.2866547  -0.6988412
  -0.2728941  -0.0265103   0.0458075  -0.4441882   0.9259642  -1.6197705
   0.9115181   1.7722759  -0.3778449   0.0342025  -0.0343302  -0.1343039
  -0.9256077   0.1246476  -0.7524259  -0.1885020   0.7675885  -0.7416452
   0.2910835   0.2349806  -0.0821982  -0.2065093   0.5376166  -2.0643144
  -0.1590158   0.4996661   0.4959758   0.1680093  -0.3010009   0.1815909
  -0.6795313   0.4371666  -1.0846375  -0.6770232  -0.3800755  -0.0954752
   0.0388266  -0.1339135   0.2851756   0.1421736  -0.4090115  -0.7248562
  -0.6613240   0.0298544   0.8827280   0.0475804   0.1128102   0.0819679
  -0.8217113   0.5359170   0.3098918  -0.8686715  -2.0801551   0.3580334
   0.3183900  -0.2527460  -0.2011817  -0.4650780   0.9426781   0.3145232
  -2.2358925  -0.0979709   0.6583573   0.2053595   0.1544008  -0.0276170
   2.6485174   0.3597488   0.0754312  -0.7035250  -0.2734900   0.7074535
   0.0067831   0.1376754  -0.1585239   0.5434543   1.8569446  -1.0623009
   0.1764444   0.2873104  -0.4663960  -0.4077428   0.1001847  -0.0753476
   0.1321395   0.4027932  -0.6433464  -0.1346218   1.0568037   0.3479189
  -0.0588984  -0.7910278  -0.0074314  -0.3380297   0.7262368   0.1794578
   0.1436742   1.6680938  -0.5124482   0.0377280   0.1179872  -0.2965807
   0.9769892  -1.1755875   0.7293724  -0.2512631  -0.4969007   0.4957850
  -0.3489285   0.2882692   0.0524257  -1.1923687   0.3380546   1.0492404
   0.4871520  -0.4283417  -0.5723332  -0.0910401  -0.0268285  -0.4469064
   0.1979092   0.4465214   0.4288715  -0.4592468   0.9984905  -0.6410202
  -0.0500144  -0.2944459   0.0573243  -0.3905306   0.2065289  -0.8792434
   0.3353926  -0.9328855   0.4379928   0.0835482   0.0221477   0.2088261
   0.5418441   0.2387111   0.5937562  -0.8000392   0.6740165  -0.3673225
  -0.1645704   0.1959966   0.4016139  -0.9217178  -0.2849839  -0.1268166
   1.4557810  -1.6098421   1.3361264  -0.3679070  -0.2735879   0.1040199
  -1.0045555   0.4771334   0.3468396  -0.5920556  -1.7473012  -1.4170482
   0.1715802  -0.0516374   0.0019245  -0.3465852  -0.5043280   0.7196746
   0.3271229   0.4100769  -1.5146627   0.0897764   0.0886374   0.0408504
  -1.6928203   0.1106784  -0.0345189   0.8858928   0.6221916   0.9516554
  -0.3910868   0.1263027   0.3456953  -1.0035009  -0.4859845  -0.4460515
   1.7206254  -2.0187895   0.0863492   0.1512399  -0.2022179  -0.0840220
  -0.4197099  -0.3448346  -0.5872012   0.4697417  -1.0748204  -0.1331467
   0.1133343  -0.4107742  -0.0590463  -1.2801782   0.8838402   0.2653641
  -1.6878288   0.2905803   0.3633117   0.3027713   0.0921334   0.2549453
   1.1070611   0.5953156  -0.8134934   0.8773665   0.9687436  -0.2396518
  -0.2377093  -0.1448115  -0.0389507   0.1710106   0.3754205   0.0710091
  -0.4680408   2.0912323   0.8564433   0.0960078   0.0064096  -0.3640787
  -0.5700387  -0.1202696  -1.3718801  -1.2291285   0.8512537  -1.1642298
  -0.0644435  -0.0172925   0.2802644  -0.0530101   0.5773955   0.1527021
  -0.3800688  -1.0333915  -1.5362195  -0.0915528   0.1947647  -0.2266875
  -1.1806792  -1.1331704   0.5896603  -0.0587602  -0.3118902   0.3244087
   0.4339205  -0.0867818  -0.2839661   0.2467469  -0.0651751   1.3732643
  -0.1103270   0.0539698   0.3439546  -0.0019581   0.1877626   0.0742625
   0.5234520  -1.5491527   1.1192834   0.6873398   0.0261942  -0.5829215
  -0.0631065   0.0819277  -0.1784203   0.1624684  -0.0563228   0.0922573
   0.3623807  -0.1924848  -0.4935930  -0.0023626  -0.1586451   0.0657621
   1.4952465   0.2692465   0.0989088   0.2535708  -0.6025202   1.0648898
  -0.0935836  -0.0537614   0.1662972   0.3835194   0.1101906  -1.3211085
  -0.5826906   0.1851098   0.1526915   0.1119964  -0.1765039  -0.1705733
   2.3505189  -0.7158237   0.6536460   1.3148221   1.1247683  -0.3516258
  -0.0192393  -0.0338495   0.0789958  -2.3807325   1.2334129   0.6250007
   0.5453781  -0.0311329  -0.8219588  -0.0010057  -0.0297434  -0.0655164
  -0.6755332  -1.1574897  -0.1157041  -0.4801803  -0.3894955  -1.7050713
   0.2868221   0.2588115   0.1715043  -0.3532795  -0.1236907   0.3271503
   0.1303360   0.2950141  -0.3351468   0.1235777   0.1708329   0.3656725
   0.3311103  -0.6097738   0.7444031   0.0172372  -1.0576949  -0.5634118
   0.3535494  -0.1189108  -0.4262102  -0.9515373   0.0494700  -0.3507037
  -1.3792406   0.1174732   0.9115721   0.2227330   0.0693083   0.0315208
  -0.9177551   0.3101372   0.4206518  -0.3149386  -0.0657044   0.9117361
   0.1348151   0.5184991  -0.0202885   0.1484312   0.0903049   0.3535385
  -1.0199714  -0.5237613  -0.8595571  -0.2873414  -0.0625630  -0.2650055
  -0.1622155  -0.2274746  -2.5042164   0.8278974   0.0184949   0.7962646
  -0.0672308  -0.1561448   0.1527335  -1.1341081  -0.7857178  -0.3766516
   0.3470643   0.0851037  -1.8601178   0.2736521   0.1672344   0.4000923
  -0.1624131  -0.4102289   0.4939819  -0.4152291  -0.7043395   0.1352737
  -0.0252362   0.0716529   0.0286425  -1.1329969   0.8639262  -0.4863720
   0.1550119  -0.2389685  -0.7919135  -0.3911478  -0.3767524   0.0847648
  -0.3080838  -0.1085888   0.6182017  -0.6917573   0.5062339   0.3473766
  -0.0821705  -0.2399067  -0.1283017   0.2898569  -0.5701426  -0.2251827
  -1.4964257  -1.5965717  -0.5191714  -0.2919412   0.0727146  -0.0281838
  -0.4940141  -0.6360224  -0.1262686   1.1297138   0.6963607   0.2827966
  -0.3244644  -0.5130214   0.0368662   1.3543545   0.4585282   1.0103991
  -0.1556923   0.2711542  -0.6586201   0.0160080  -0.0512867   0.0698879
   0.1227906   0.3012120   1.0797939  -1.5583442  -0.6357904   0.8853385
  -0.3075421   0.1184546   0.4633718  -0.8252380   0.9827813   0.5985773
   0.3586406  -0.4968565   0.3170868   0.0585257   0.0214320  -0.0954973
  -0.1190858  -0.2277746   1.0745833   1.3553557   0.1845009   0.0053436
  -0.0920722   0.0552745   0.1018462   0.5019310   0.0885853   0.2443880
   0.1438958   0.3164466   1.0152111  -0.0308846   0.1241384  -0.1625540
   0.0060421  -1.5138059  -0.8445679  -0.3818933   0.0312852  -0.9596314
  -0.0518047  -0.1089643   0.2355915   0.4033272  -0.6520370  -0.6197755
   0.5048465  -0.6854531   0.4432987   0.1529172   0.1343099  -0.0186249
   0.7675964  -0.4441793   0.4899363   0.0948277   0.3893578   0.7947390
  -0.0676302  -0.0904802  -0.3533037   0.3979039   0.5831192   0.7753637
   1.5956731   0.2342503  -0.8289512   0.1862739   0.1076529   0.3223513
   0.3894714  -0.9225326  -0.2150725  -0.0121287  -0.2915775   0.0683668
   0.0732810  -0.0513378  -0.0637516  -0.7414279   0.6687577  -0.2023229
   0.0671148  -1.6218001  -0.8076780  -0.2293559   0.1351096   0.0226415
  -0.6318812   0.3737025  -0.1228613   0.3890563   0.4067639  -0.5439856
   0.0340710   0.3045483  -0.3384062  -0.3367128   0.9024350   0.4012573
   0.3385388   0.3948322   0.0537116   0.0610063  -0.2046721  -0.2583088
  -0.5403301  -0.1467018   0.5096978  -0.3776402   1.1591948   0.1816017
   0.1935565  -0.0833992   0.1937609  -0.7483628   0.2792270   0.9430561
  -0.5928288   0.1494482   1.0657421   0.0157312  -0.1366008  -0.1330420
  -1.2273058   0.9255278  -0.2508801   0.4235660   0.9021996   0.5605540
  -0.1609499   0.3023601  -0.0546616  -0.0458573  -1.2617202   0.6064580
   0.7007959  -0.0425677  -0.1490789   0.3286806   0.2894908   0.2991677
  -0.2278194  -0.8257537  -0.2415292   0.1524065  -0.5751176   2.0703301
  -0.2663152   0.0034566  -0.0136650  -0.2648437   0.8450693   0.3774280
  -0.4117483  -0.6405141   0.7343594  -0.0650295   0.0932232  -0.2315391
  -0.5205309  -0.3031847   0.4000456   0.1948855   0.3316615  -0.8652208
  -0.0490603  -0.1022967  -0.2041215   1.0491896   1.4716451  -0.2475968
   1.3379128  -0.2290632  -0.0744229  -0.2258185   0.0352613   0.1406073
  -1.5694181  -0.8607031  -0.2293723   1.9784613  -0.0172554  -0.5103486
   0.0817107  -0.2638834  -0.0748092  -0.4510925   0.7511827  -0.1778370
  -0.8998129  -0.2770705   0.0174284   0.1217947  -0.0816817  -0.0524940
  -0.1546147   0.0128929  -0.6753128   0.0537180  -0.6759829   0.7515444
  -0.2824181  -0.3995771   0.0893320  -1.6354258  -0.2053763   0.3037615
  -0.1373568  -0.4859322   0.1030555  -0.2056700  -0.0021025   0.2475107
  -0.5603732   0.1052547   0.2733587  -0.5049290  -0.0360130  -0.1840487
  -0.0000425  -0.1670731   0.0424248  -1.0192913   1.7889336   1.8182981
   0.9569187  -0.3443174  -0.8267186   0.1859145   0.1996613   0.0522394
   0.6883594  -0.6196573   0.5223705  -0.0712816   0.2920442  -0.3536251
  -0.1155490  -0.0649639  -0.2253261   0.2756514   0.3580377  -0.4532376
  -0.4014443   0.0377840  -0.0697588   0.1310733   0.4173887   0.1085795
   0.1949824   0.4149549  -0.1776647  -0.0541342   1.1997290  -0.7752637
   0.1999436   0.0916635  -0.1916694   1.1488677   0.7169222   0.7839856
   0.8181995  -0.1831823  -1.1158116  -0.3331023  -0.2092800  -0.0353691
   0.2679760   0.1376306   0.9689884   0.3552283  -1.2155993  -0.0724046
   0.0712726   0.0441872   0.1474984   0.6320009  -0.3809344   0.0100269
   1.1289885  -0.3851408   1.0470911   0.0976878   0.3495469  -0.0710581
   0.0200470  -0.3673464   0.1367101  -0.1862059   0.6644959   1.4641892
   0.2948997   0.0883745   0.2580407  -1.4418274   0.3418182  -1.1561178
  -0.1133877   0.3230768   0.5258676  -0.2361396   0.0838815  -0.0393661
  -0.2478501   1.1052126   0.6048428  -0.8567480  -0.0696943   0.7089628
   0.0595370  -0.2381360  -0.1338422   0.1627313   0.1210755  -1.4195708
  -0.1303846  -0.5474426  -1.2855181  -0.0830452  -0.1736448   0.3824396
   0.9021464  -0.2395386  -0.4229424  -0.0155424   0.3146484   0.4628918
  -0.1359111   0.2342839   0.0080269   0.7056104  -0.3726762   1.0511568
   0.5407807  -1.0873069  -0.8478903   0.0662072   0.2481953  -0.1530235
  -0.8744888   0.1988708   0.6644560   0.3924649  -0.7252613  -0.3849540
   0.0812580   0.0422809   0.0160441  -0.8606129   1.1127343  -0.8736607
   0.9892970  -0.6396588   0.5386484  -0.0458207   0.0541470   0.0980538
  -0.6794044  -2.0540078   0.7570850   0.6193110  -0.6387532   0.3002779
   0.0493863   0.4367365   0.1349169  -0.4164756  -0.1024409  -0.5177410
  -1.8757534  -1.2511311  -0.5569335   0.1910167   0.1173422  -0.1707346
  -0.2187210   0.3420368   0.0261625   0.5479919  -1.1429397   1.6110576
  -0.4424916   0.0386643  -0.1295966  -0.8437126   0.9745349  -0.9564378
   0.5351692   1.7111924   0.2409657  -0.2460892  -0.0150688  -0.0493964
   0.6214997  -0.9660699  -1.1717447  -0.2101630   1.5905782  -1.3692273
   0.1476215   0.1076750  -0.1294445   0.0373455   0.6053646   0.1840349
   1.2359134  -0.2486711  -1.5438986   0.0456213   0.0589031  -0.0072739
   0.2518969   1.4876180   1.0539746  -0.9799736  -0.6180279   0.4006181
  -0.1165496   0.1985209  -0.3107206  -0.2533627   1.0842644  -0.4386151
   0.0952900   0.1116921  -0.0732700  -0.3924133  -0.0780110   0.1941781
   0.1883838   1.0556573   0.2397642  -1.3217505   0.8412917  -0.8554156
  -0.2951903  -0.0597310   0.1116800   0.4838830  -1.2842599  -1.4929467
  -0.4715746  -0.5251545   0.7100832   0.0806509  -0.2433076  -0.0459989
  -0.4143687  -0.4357277  -1.1980926   0.6415457   0.9616541   1.0780818
  -0.0968676  -0.3404784   0.0070880   0.5851939  -0.8530724   0.7007217
  -0.2329639  -0.9715576   1.6673120  -0.1292103   0.0839036  -0.1346584
   0.6348801   0.0388021  -0.4466575  -0.1872087  -1.2556713   0.7006160
  -0.3355263   0.1108882   0.2659757   0.2471424   1.7587805  -0.3895882
   0.1589765   0.4078874   0.5699962   0.0189673  -0.1325736   0.0721864
   1.3044384  -0.2025110  -0.2476001   0.8418204   0.7826772  -0.3449559
   0.0951597  -0.1880905   0.0326141  -1.0011605   0.6347039   0.6302839
  -0.3241978   1.4318221   0.1466233  -0.0272721  -0.0341167   0.2219072
  -0.2252341  -0.7005405  -0.3583533   0.4239462  -0.4257916   0.0320758
  -0.3252640  -0.0687901   0.0552575  -0.4417380   1.3630098   0.0372750
  -0.3708865  -0.8606975  -0.3377304  -0.0648412   0.2600225  -0.0196894
   0.3071477  -1.0824311  -0.9052016   0.0673647   0.6250244   0.8821185
  -0.1164713   0.0302221  -0.0720496  -0.3845495  -1.3154556   0.4752977
   0.7141490   0.2633189  -0.0796518   0.0213621   0.1224605  -0.0462926
   1.1390687   0.6024567  -0.9686186  -1.2615376  -0.2940284   0.4995062
   0.0814107  -0.0868918  -0.0404341   0.0756063   0.0628334   0.1275704
   0.3267990  -0.1717309   0.4891980  -0.3221150  -0.2319059  -0.0686317
   0.7652741   0.7098927  -1.2557983  -0.3551342   0.4339628  -0.6358044
  -0.0057310  -0.2627625   0.1075239   0.5155049   0.9150125  -1.4161673
   0.7465968   1.2563030   0.3788069   0.1247522  -0.2296537  -0.2171715
  -0.1420967   0.0811368  -0.2798622  -0.2530592   1.6047828  -0.0898477
   0.2051194  -0.0876561   0.1537296   0.1895803  -0.2719454  -0.6039243
   0.2098577   1.3259821  -0.0323188  -0.1119876  -0.1887720   0.1323607
   1.5569748  -0.1083488  -0.8566700   1.6067046   1.4496424   0.3034572
  -0.2568441  -0.1093249   0.0148507   0.5461037   0.2957388  -0.8195399
   0.0479453   0.8224418   0.1278412   0.1203077  -0.2434986  -0.1121488
  -0.2363123  -0.5558769  -1.5942466   1.2864300   0.2762796  -0.5267045
  -0.2093777   0.1501594  -0.2529064  -2.6028712  -1.0979377  -0.0635273
   0.7699709   0.3493976  -0.8351998   0.1872752  -0.2762944   0.2761562
   0.8875024   0.7445659  -1.2931347  -1.1074072  -0.0052959  -1.0823585
   0.0979959   0.1404911   0.2839765  -0.3477243  -1.0770273   0.2236822
  -1.6668864   0.0241809  -1.1222416   0.0511192   0.0733243   0.0389840
   0.3439521   0.1174407   0.2851826  -0.5805182   0.2917317  -0.2047517
  -0.0246483  -0.3986535  -0.3088015   0.4182874  -0.0489026  -0.0491567
   0.0390130   0.3622263   0.5889870   0.1232435   0.0937909   0.2428833
   0.7789102   1.1400496  -0.7545586  -0.3135750   0.1596402  -0.0155593
   0.1621044   0.0071861  -0.1405471   0.3335052  -0.9056342  -0.7136832
  -0.6673971   1.7248590  -0.9048452  -0.1404461  -0.1277224   0.1416351
  -1.4270070   1.5006399   0.2873979   1.1827838  -1.2105858  -0.9626110
  -0.2467221   0.1795833  -0.4679039   0.1670547  -1.4024740  -0.3041850
  -0.3264447  -0.0523612   0.7612885  -0.0952603   0.1095235  -0.2289464
   0.7789603  -1.8025612   0.3689248   0.9003938   0.6209715  -0.0284292
   0.0480222   0.0173730  -0.0585492  -0.7495398   0.0750804   0.1404032
  -0.3923784  -0.7028224   0.8946486   0.2141412  -0.0666290   0.2315115
   0.8236968  -0.2133308   1.0258077  -0.9131799  -1.0023928  -0.6088345
   0.2035541  -0.2432796  -0.4267960  -0.8620734  -1.1303406   0.2509274
   0.8053195   0.4029498  -0.0549547  -0.2683122  -0.1127618  -0.0852885
  -0.2570805   0.0743700   0.0711839  -0.5473461   0.2740322   0.6815297
   0.0864565  -0.0826975   0.0621247  -1.6125822  -1.5605329   0.0849927
  -0.8872979   0.5005164   0.3994993   0.1421736   0.0522973   0.2100123
  -1.0683376   0.6420614  -0.9691044   1.3464534  -0.6083472  -0.3623283
  -0.2253391   0.1250602   0.1810740  -0.3156154  -0.0948021   0.7080144
   0.7429036  -0.8837472  -0.1191655  -0.0463835  -0.0729760   0.0754154
  -0.4618187   0.2458248   0.2571732   1.1888608   0.0317943  -0.0337561
   0.2900394  -0.3763102   0.0535212  -0.5070559  -1.0522047  -1.0748158
  -0.5312307  -1.1794621   0.5812808  -0.1503543   0.2741367   0.1420833
   0.6602804  -0.4613906   0.1219194  -1.7974457  -0.4386683   0.1791678
  -0.1001258  -0.0283171  -0.3084640  -0.3571508  -0.4911442  -1.0542600
   0.3603502  -0.0429984   1.9663322   0.0733326   0.0210197   0.1430351
  -0.3108546   0.6534179   2.0490785   1.1993989   1.7468638  -1.3812742
  -0.1812632   0.1290340   0.0564754  -0.6205676  -0.5294800   0.3051319
  -1.2447423   0.3095745  -0.1959555   0.0898742   0.0271654   0.1148650
   0.8056423  -0.7844609   0.6201298  -1.3873910   0.9801565   0.7169695
   0.2887934   0.0810022  -0.0787975   0.7887428  -0.0858612   0.4898540
   0.4262441  -0.1519142  -0.1637408  -0.1090231  -0.2658193   0.0939177
  -0.3089148   0.6459635   0.7034300  -0.0930838   0.1694122  -0.8596838
   0.0048578   0.1303174  -0.0595670   1.3307446   1.1625252  -0.4721144
  -0.1144908   1.1957577   1.0502722  -0.0215055   0.0223240   0.1266575
   0.1472445   0.3721682   0.3041897   0.2200133  -0.5734355  -0.2248531
   0.2801866  -0.4014604   0.0983162  -0.1639400  -0.9180417  -0.4812526
   0.7464570   0.0060616   0.1799574  -0.1599014  -0.2147547  -0.1999410
  -1.2785819   1.7832406  -0.0752169   1.2530321  -0.4190678  -1.4268357
   0.1328367  -0.2554587  -0.2885436  -0.5602502   0.3999701  -1.2488341
   0.6422651  -0.5376872   0.1229437  -0.1480492   0.0927392   0.0203831
   1.2559999  -0.0147282  -0.6371722   0.1554018  -0.8800861   1.1527387
   0.0220325  -0.0467490  -0.1194707  -0.1907458  -1.0725869  -0.2607231
   0.1373664  -0.1062818   0.2622901  -0.1348841   0.0969998   0.1396183
  -0.0401845  -0.0034592  -1.6833129  -1.5357366  -1.2934452   0.3616533
  -0.0496943   0.0391959   0.0753780   0.8222200  -0.4135568   0.2586209
   0.5631776   0.3794781  -1.1644213  -0.0271798  -0.1319122  -0.2895556
   0.4580665   1.2172804  -0.3644818   0.3019903   0.0497161  -0.1395488
   0.0222153  -0.0813841  -0.0947468   0.1046235  -0.3143081  -0.4934546
  -1.3154525  -0.6131303  -1.7173755  -0.1707874   0.1109378   0.0645836
  -1.1979200   2.2118225   0.0808925  -0.9068211  -0.4946299   0.2150270
   0.0764828  -0.2001015  -0.0887440  -0.1012806   0.4180872  -0.6445445
   0.9042797   1.0365882  -1.0192639   0.0098844  -0.0693488   0.4080917
  -0.6038767   0.3738300   0.5951318   0.8160157  -1.1787539   0.3093504
  -0.1728383  -0.1067691  -0.0675577  -0.8744954  -0.8451414   0.0897943
   0.6244262  -0.5195577  -1.0883183  -0.1251044  -0.0177572  -0.0069138
   0.0457640  -0.3120423  -1.2594279   0.1712253  -0.1070868   0.0580015
   0.0267858   0.1721279   0.1962636   1.4709935   0.4849669  -0.4078819
  -0.2931053  -1.0560892  -0.0176148  -0.0067033  -0.0298725  -0.0463411
  -0.1960223   0.0881031   0.0274524  -2.0187256   0.7162665   0.2548927
   0.1743262  -0.2647331   0.2355712   0.1590702   1.0845312   0.3013138
  -1.3036796   0.2484773   0.4409297  -0.1834136  -0.0699909   0.3371806
  -1.2767748   0.9820351   0.1679941   0.2099446   0.5245013  -1.8402296
   0.4850517  -0.0181385  -0.0104874   0.6781342  -1.4990053   0.8971328
  -0.5533732   0.7558370  -1.6089844  -0.0529257   0.1363159  -0.0458611
  -0.6074824  -0.0172277   0.5852340  -2.2390954  -0.7012704  -0.7482008
  -0.2434489   0.2265447  -0.1038396  -1.5370049   1.2968180  -0.9214200
   0.2239886   0.1744137   0.2411430  -0.0784912   0.4092895  -0.2045199
   0.3543496  -1.6600029  -1.3142930  -0.2604520   0.3638626  -0.9382134
   0.1929063   0.0906722   0.0898368   0.6652103  -1.1045004   0.7726953
  -1.5664601   1.9399253  -0.4403839   0.1953865   0.0152739   0.1390577
  -1.0598384  -0.7547554   0.0031467  -0.2661179  -0.6223595  -1.3620421
   0.1492258   0.0709156  -0.2149651   0.5874691  -0.5054401  -1.2829267
   0.2065065   1.0542271   1.5528113   0.1096708  -0.0704079   0.4563861
  -1.3152310  -0.5668093  -0.3886183   0.0613556  -0.2361365   1.3926784
  -0.0036643  -0.3741497  -0.0414424  -0.6891631   0.5175321  -0.9161495
  -0.3000040  -0.7899486  -0.3182597   0.2271330  -0.0133481   0.0392415
   0.6132503  -0.7923652   0.3379388   0.2757525  -1.1470895  -0.1289230
   0.2487089  -0.1004646  -0.0756829   0.9433941  -0.0466109   0.5541896
   0.0138640  -0.2694941   0.0811359   0.3148994  -0.0603495   0.1161282
   0.2545669   0.4194828  -1.7376710  -0.2917519   0.6677693  -0.1869080
   0.0399599   0.3017995   0.2257755  -1.1753497   0.1032672   0.2824576
  -0.6704057   0.6417571  -0.5447368  -0.1423510  -0.1132668  -0.0721501
  -0.0737698  -0.4414153  -1.0104853   0.7862592   0.7949787   0.2629203
   0.0752737  -0.1839863   0.0322629   1.6601083   1.3266819  -0.7294151
  -0.7658651   0.7147688   0.4348005   0.0820942   0.3905577   0.0672971
   0.0861091  -1.4390373   0.7573001  -1.3051471  -1.3051648  -1.5423458
   0.0745785   0.0345131  -0.3087808   0.1439732  -0.5782837  -1.2187746
   1.0512217  -0.7464368  -0.2724214   0.0444782  -0.0504383   0.1022703
   0.4466481  -0.7448632  -0.9608221  -0.3949413   0.5893334  -0.1423380
   0.0811393  -0.0706066  -0.0930056   0.1495328   0.6202185  -1.0298250
   0.1569003  -0.4633863  -0.3900334  -0.1769377   0.2590271   0.1396022
   0.7745015  -1.4315172   1.2433331  -0.1200970   0.5746173   0.4285710
   0.0709802  -0.0035397   0.5231143  -0.0435197   0.4979439  -0.3789127
   0.8180534   0.2134630   0.1422213  -0.0598886  -0.3205768   0.0092330
  -1.1816057  -0.1557790   1.4529984   0.1080855  -0.8447722  -1.5993971
  -0.0524612  -0.1392252   0.1774061   0.0619948   0.6117623  -0.9057117
  -0.4346941   0.1729915  -0.0168727   0.2661579   0.1361749   0.0615282
   1.2231826   1.1744648  -1.3166144   0.5575319   0.3189823  -0.5560948
  -0.0991165   0.0679184  -0.1348267   1.6192838   0.6615968   1.5386311
  -0.4553640   0.5543491  -0.4801279   0.2570092   0.1297245   0.1078542
  -0.3064748   0.2847821   0.8162174   0.0481710   0.8610636  -0.7402285
  -0.1062781  -0.0689477   0.2481867   0.9859658  -0.2572110   0.9078010
   1.5186967  -0.5108339  -1.0664841  -0.0786013   0.0721182   0.2544197
  -1.0168003  -0.0202213   0.5154358   1.0361661   0.3258185  -0.4573868
  -0.0938125  -0.0878137  -0.1858959  -0.5455056   0.3321947  -0.0902545
  -0.4342262   0.7259742   0.4011836   0.0260344   0.3615105  -0.2801465
   1.0151956   1.4609559   0.3960305   0.4070657  -0.0227616  -0.6546327
   0.2623130  -0.0453362   0.3284160  -0.0826412   0.0030951   1.1024729
   0.4730869  -0.7706336   0.1321204  -0.1058911   0.3989820  -0.0322753
   1.2897125  -0.2652708   0.8990263   0.0924654   0.1774356  -0.5762632
   0.0070267   0.1906599  -0.2070846   1.1479256  -1.5512298   0.5352336
   0.4189065  -0.1657578  -0.8990073  -0.4237520  -0.0437037  -0.0292574
  -0.8830495   1.2646415   0.5864267   0.5382023  -0.9658615   0.0028568
  -0.0092385   0.0693283  -0.0605544  -0.4041992  -0.1007223  -0.0072223
  -0.0336524   0.3421977  -0.2513976  -0.1586985   0.0138400   0.1648001
   1.2049131   0.3297490  -1.9005933  -0.0870878  -0.0569622   0.5642145
   0.0681050  -0.1131384  -0.2829503   0.1372502  -0.9506251   0.9790113
   0.0091387   0.0471413   0.3036305   0.0404676  -0.0143570  -0.1882421
   1.1433542  -0.2994812   0.2719971  -0.5481275   0.5357838  -0.4502887
  -0.1226123   0.0944044   0.0903023   0.1351964  -0.2963736  -0.1650855
  -0.0290789  -0.1251173   0.6628233  -0.0577787  -0.0832945   0.1590689
  -0.0304342  -0.0865056   1.4772478   0.6885967  -0.1568323   0.8212601
  -0.4564880  -0.4335804  -0.2327757   1.2119199  -0.7429036  -0.6776553
   0.3307805  -0.3485723   0.2311848  -0.1088779   0.0889020   0.2027538
  -0.4068256   0.6329176   1.8812197   0.1323311  -0.3693298   1.2269268
  -0.3787748  -0.1838235  -0.1294625   1.3146975  -1.2069796  -0.8240381
  -0.7180640  -0.6904160   0.2061892   0.2024726   0.0374169  -0.2496671
  -1.2475653  -0.9386243  -0.7653115  -0.1361821  -0.8718609   0.2365531
  -0.0703332  -0.1533405  -0.3199641  -0.9341004  -1.0791379  -0.0955770
  -1.3743653  -0.0895952  -0.7766600   0.4260645   0.0195371   0.0060675
   0.6108152  -0.3041113  -0.2595947  -0.6332701   0.0763558   0.8104110
  -0.0500423   0.0758842  -0.0082340  -0.0170867  -0.6284456   0.0703990
   0.3892866  -0.1367087  -0.8151972   0.3496958   0.2353410   0.1083947
  -1.1291345   0.9979694   1.0715779  -1.6975671  -0.2648948  -0.3721614
  -0.0322444  -0.0105087   0.1554433  -0.6119154  -0.7560565   0.8824350
   0.7965306   0.0354279  -0.0248186  -0.4459057  -0.1715787   0.1983485
   0.4922290  -0.7011221   0.5774157   0.1704708  -0.6512324   0.9118122
  -0.2509117  -0.2588084  -0.1356412  -0.0725273   0.0628138   0.6552217
  -0.0421381   1.0275971  -0.8853071   0.1022171   0.1312118  -0.2622693
   2.1185360   0.4143644  -0.7547500   1.6436582  -1.6845777  -0.0699421
   0.0428221   0.3580930   0.0863976  -0.0660466  -1.2505420  -0.0607369
   1.4226501   1.4977008   0.9938641  -0.2471676  -0.2551276   0.4001780
  -0.6430990   1.0773582  -2.0934823  -0.9216506  -0.4503160   0.0087585
  -0.0475729  -0.2463076  -0.1841587  -0.8993725  -0.0817290  -0.4742287
  -1.1522588  -0.0171303   1.3465120   0.0271601   0.3320729  -0.0216995
  -0.0739075   0.0961345  -0.0252547  -0.3480753   1.7100720   1.0038610
  -0.0534830   0.3079405   0.1463135  -0.0856951  -0.9474438  -1.2617203
   0.6530163  -0.1307135   0.5633583   0.4351853   0.1755289  -0.2906485
  -0.5751780   0.8591096  -0.2981426   0.6573549   0.9592491  -0.2359052
  -0.1791531   0.0719647  -0.0348449   1.1742754  -0.4291580  -0.1367094
   0.2177269  -0.3413661   0.0887424   0.2471407  -0.1938452   0.1828398
   0.8614432  -0.4294675  -0.5810993  -1.3604646  -1.5941910   0.1557239
   0.1927969  -0.0225200  -0.1076331   1.4872625   0.7049790  -0.0992443
  -0.1967164  -1.4227260   1.3531157  -0.1516999  -0.3195505   0.1992635
  -0.4934889   0.7735497  -1.0992949   0.3125850  -0.5437855  -0.1958477
   0.2174058   0.3117890   0.2388354  -1.1718317   0.8584538   0.0324511
  -0.8451526   0.5880007  -0.8888319  -0.6574019  -0.3698558   0.4436475
   0.3213306  -0.1347175   0.5573584  -2.3616216  -0.4303912   0.2291157
   0.0498072   0.1274045   0.3370125   0.1798984  -1.6353108   0.2101579
  -0.2177454   1.4497367  -1.7783113   0.0316063   0.2187451   0.3878377
   0.4052221  -0.0393163   1.4522474  -1.4454147  -0.6000549  -0.5619965
   0.0300486   0.3172268   0.1507745  -0.5233791  -0.2864992  -0.2289033
   0.0710280  -0.5366799   0.2500294   0.3861142   0.0427254   0.2617596
   1.3664143  -0.3082794   0.4266604  -0.7174488   0.2837741   1.6500342
  -0.0494129   0.1840149  -0.1103737   0.0522542  -0.0580609  -1.3327403
  -0.6294345  -0.4341989  -0.8339117   0.3306611  -0.5089775  -0.0450093
  -0.6446659  -0.3868703   1.7522347   0.5963448   0.8771041  -1.1765884
  -0.3816060  -0.0227817   0.1491626  -0.4366735  -1.6022496  -0.4572023
   0.0504968   0.7835810   0.5679928  -0.2913810   0.0621438  -0.0246866
  -0.0757207   0.6191653   0.1334890   0.6633691   0.3735702   1.1693538
   0.1979344   0.0558031   0.1017380   0.7729375   1.5485390   0.2251330
  -1.2421896   0.9851304   1.2883867   0.2451512   0.0354906  -0.0643771
   0.6698172  -0.7051589   1.0082834   0.2198734   0.1175902   0.5452797
   0.0925337   0.0730581   0.1294783  -0.2156903   1.1267887  -0.6986102
  -0.4544542   0.4081143  -0.8878289  -0.0292067  -0.0339589  -0.0758479
  -0.3509623  -0.6729295   0.3520693  -0.0020449  -0.4928246  -0.1275049
  -0.1292323   0.1833213  -0.2059467   0.0101196   0.5525762   0.5647966
   0.2806669  -0.0530415   0.0912703  -0.2238180  -0.2243153  -0.1236474
  -0.2534305  -0.7313103   0.0938591   0.2179917   0.2507443  -0.0091085
  -0.1906361  -0.2555546  -0.0894873  -1.3370738   1.7186542  -0.7109244
   1.5588171  -0.2038155  -0.5028682  -0.1456322  -0.2075040  -0.0604193
  -0.6336926  -0.1896648  -0.0767863  -0.3115216   0.7076927   1.8085419
   0.0266787   0.1075750  -0.2967939   0.3764738  -0.6050769   0.3786579
  -0.7276857   0.7249282   0.8834708   0.1433846  -0.0815828   0.1703553
  -0.7008738   1.7342952   1.4732051   0.5353320  -0.5462897  -0.0534209
   0.3440363   0.1587474  -0.0381515  -1.5598817   0.5618656  -0.6743075
  -0.1493806   0.1013990  -0.8853022  -0.2855025  -0.0596170   0.3702604
  -0.6637079  -0.1478779  -0.8435383  -0.9786162   0.7206639   0.2639444
   0.2279917   0.4793907   0.0271811  -0.4513402   0.7191280  -1.1231652
  -0.0575171   0.6423714  -1.0559067  -0.0538786  -0.3820626   0.0044405
   0.0370651  -0.0954448   0.7947220   0.1643188   0.3010718  -0.0839920
  -0.1459832  -0.1393770   0.5716275  -0.7599801   0.6814335  -0.7641103
  -0.5145413   1.3878615   0.6716104   0.1546463   0.0514372   0.0005891
  -0.6690458  -1.5194780   0.1940389  -1.0714406  -0.3362637   0.3789005
   0.1590924   0.1638964   0.0454840  -0.6862921  -0.5813669  -0.5520682
   0.1603339  -0.9289095   0.4036438  -0.1758634  -0.0656240  -0.0326359
   0.2865901   0.0175292   2.4313774   0.4143577   0.2113986   0.0636131
  -0.0970010  -0.0945771   0.1222156  -0.2785091  -0.4345729  -1.8520311
  -0.7486849  -0.2692400   1.0927070  -0.1400959   0.0637620   0.1437503
  -0.1618402  -0.8120283   0.5851281   0.2248178  -1.5769019  -0.5755637
  -0.0718988  -0.1493709  -0.0148716  -0.1826224  -1.6815270   0.9787326
   0.7383324  -0.5637434  -0.9928464  -0.2159919  -0.2039166   0.1732101
   0.8056552   0.4098741  -0.2515650  -0.0295825  -0.1592711   0.1859764
   0.0304959  -0.1877214  -0.0072227  -0.0047926   0.2110623   0.2121316
   1.1629543  -0.6860658  -0.1899592   0.2674378   0.1387637   0.4046893
   0.2583769  -0.6054636   0.3741382   1.1134690   0.7366352  -0.9226981
  -0.0382558  -0.6108167   0.2512103  -1.8576094  -0.2822030   0.1010815
  -0.2826776  -1.0944784   0.0460318  -0.2601536   0.1116802  -0.0551231
  -0.3789087   0.7887595   1.0347255  -0.3232665   0.8090464   1.1979024
   0.3019654  -0.0485844  -0.3824072   0.2237412  -0.0717564  -0.0819719
   0.1200336   0.5344257   0.0043066   0.3112764   0.1829911   0.1635180
   1.3706604  -0.8305296   0.8482666   0.1155351   1.0703262  -0.8566399
  -0.4540764  -0.0734357   0.0581967   0.2709768  -1.0712472  -0.7614027
   0.4521621   0.2339314  -1.1863308   0.0654790  -0.1507118   0.0849608
  -0.9869361   1.3248773   0.5305038   0.3437234  -0.0701867   0.9523013
  -0.2376996   0.0951207  -0.0839969  -1.5360233   1.9677105  -0.5606712
   0.1493395  -0.4594163  -0.1508543  -0.3371883  -0.0990132  -0.2289104
   0.2015083  -0.9474862   0.9794582   0.0620436  -1.7495205   1.6807464
  -0.2942118  -0.0380135   0.0674996   0.3277401   0.0720726  -0.4948822
  -0.6453021   0.5785585   0.4080006  -0.0643288  -0.0393881  -0.1149190
  -1.0190475  -0.3747805  -0.1732193  -0.5988796  -2.2572529  -0.4127553
  -0.1221933   0.2138828   0.3096080   0.1677113  -0.3640787   0.0803899
   1.3416553   1.7049202  -0.0942858  -0.3042496  -0.0542926   0.1503418
  -0.7081967  -0.3629492   0.2790771   0.3879033   0.8699775  -0.0917374
  -0.0223877  -0.5152516   0.2910509   0.5991619   0.5149918  -1.5322394
  -1.2679188  -0.1779419  -0.4160608  -0.1775165   0.2329470  -0.0596169
  -0.5629820  -0.0540784   0.5992054  -0.7147585   1.5691075  -0.1617602
  -0.2162556   0.1285812  -0.4345601   0.6894364  -1.3529131   0.5930027
   0.3089504  -0.2746413  -0.2124738   0.0290552   0.0680711   0.0388359
   0.1194096  -0.8010237   0.1372504   1.8523813   1.3959546   0.5443712
   0.0717114  -0.2809404   0.1704911   0.0173929   2.4093919  -0.6793779
   0.2770857   0.8559144   0.3723093   0.0786583   0.0055909   0.3550161
   0.0544368  -0.0887687  -0.0997472  -0.1711906  -0.1959738  -0.1553496
  -0.4877473  -0.0188297  -0.0608786   0.5886855   0.2298057  -0.7029081
   1.7535266  -1.5212986   0.5354690   0.0338041   0.1312473   0.3059384
  -0.9958283   0.0338585   0.3864152  -0.5900807  -0.5652460  -0.4033011
   0.1049604  -0.0825153  -0.1172157  -1.1902571   0.7770751  -0.0476429
   0.4342823  -1.4000447   0.3792775   0.1921306   0.1307376   0.3223122
   0.3026960  -0.4994426   0.1320661   0.4162606  -0.1727452  -0.2613698
   0.0035086   0.0649824  -0.0927370  -0.6714526   0.0779735   0.7094384
  -0.8240468  -0.5537490  -0.7313657  -0.2557438   0.0117255   0.2722981
   0.8849591   2.1151657  -0.2465611  -0.5993665  -2.0691719  -0.5190243
  -0.2338924  -0.1537262   0.3609543  -0.9084926   0.3700733  -0.8022178
   0.1972229   1.8125356   0.4611881  -0.0257640   0.2939879   0.0344299
   0.7128944  -0.5036730   1.1875955  -0.8502232   1.0485260  -0.2495222
   0.1698485  -0.3120361  -0.0030952   1.0360005  -0.3543895  -0.4863004
   0.7726993   0.2103947  -0.6138344   0.0740400   0.3957543   0.2770168
   0.3684637  -1.6944144   0.6363968   0.6611823   0.6866131  -0.2595510
   0.3245192   0.3700896  -0.1269205  -0.2206229   0.4587793  -1.7471277
   0.7175078   0.1282172   0.8752478  -0.1957783  -0.0994359  -0.0866680
  -0.7322362   0.0662450   0.7009841   1.2782807   0.7915750  -0.0731781
   0.0561171  -0.0226840  -0.1039875   0.1446652  -0.5537975   0.0304759
  -0.0093554   0.3794698  -0.0164819   0.0178270   0.5223963   0.0187557
  -0.3783771   0.2883624   0.4352765  -0.6037827  -1.1235765  -0.0443825
   0.2886150   0.2649363   0.0437710   0.1227063  -0.3515569  -0.5825182
  -0.7121604  -1.0414091  -0.1765808   0.0737393  -0.0864223  -0.3547698
   0.8088391  -0.7999766   0.1191376   0.0540381   0.5425200  -1.0444689
  -0.4100825   0.0591616  -0.1270376   0.9382917   1.3105057   0.7561120
   0.3938994  -0.3429565  -0.7421930  -0.0678571  -0.0870072  -0.1667780
   0.3685776  -1.0917701  -0.6702577  -0.6568534   0.0133727  -0.1149620
   0.0971486  -0.0420355  -0.2571065  -0.5985121  -1.0222899  -0.2424521
   0.2001909   0.1496658   1.0445681   0.0398807   0.1176356  -0.1362099
   0.6317079  -0.0566344   0.0964141  -0.4262734  -0.2297167   1.0195769
   0.2337903  -0.0156342   0.2577199   1.0539876   0.2449427   1.1041064
   0.8734183  -0.5703265  -0.1126545  -0.3166946   0.0934329  -0.0151095
   0.1684750   0.7459117   0.0064705   0.2297533   0.7392985   0.3280901
   0.3073125   0.1763993   0.0835104  -0.6037633   1.4306706   0.1870950
   0.2189352  -0.4112490   0.2286538  -0.1522928   0.0969053   0.0284527
  -0.0857056  -0.2088804   0.8409721   0.1236339   0.4146465  -1.4871321
   0.0693210  -0.2067904  -0.0568472  -0.6232023  -0.0645215   0.4361127
   0.2746950   1.0760293   1.0074953   0.0389851  -0.1148133  -0.4171689
   0.2425578  -0.2112653  -0.2933849  -0.8265874   1.8507928   0.9162387
   0.0096242   0.1027723   0.0598048  -0.8828908   0.3317355  -0.3041859
  -1.2027042   0.2483697  -0.6334183  -0.2351208   0.0667351  -0.2361313
   1.2607960   0.8487149  -1.1529588  -0.2695903   0.7072881  -0.3613497
  -0.1082442  -0.1612428  -0.2868785   0.3980000  -0.1140957   0.2330680
   0.8167657   0.5861659   1.0500196   0.0094161   0.1395664  -0.5899575
   1.2880195   0.0098341  -0.8017098   1.1595325   0.6535141  -0.2494808
  -0.1067230   0.1741164   0.1214005  -0.2915765  -0.2156915   0.6160452
  -0.2380161   0.6660062   0.0564620   0.1524342  -0.2176770   0.0117316
   0.0638777   0.0479112   0.5148467  -0.4580415   1.6273108   1.3172103
  -0.1110274   0.0908675  -0.1360194   2.0776813   0.2148368  -0.0512148
  -1.5041842   0.2980735  -0.5018253   0.1093679   0.0582025  -0.0262339
  -1.0716784  -0.8447205   0.2830692   0.9379719  -0.8526953   0.7653733
  -0.1558694  -0.0379827  -0.0277410   0.2191450   0.2545295  -0.0516925
  -0.2326429  -0.0987006  -0.1155790   0.0900215   0.1488941   0.0690288
   0.6897792  -0.8483455   0.1426297  -0.5084164  -0.1175570  -0.0453004
  -0.0984464  -0.3713512   0.2056620   0.4922177  -0.8272963   1.1782535
  -0.8183218   0.0490581   0.5752632   0.0013397  -0.0319382  -0.3084681
   0.3793579   0.1575831  -2.0914290  -0.6369421   0.9673660   0.8173017
  -0.1117666  -0.0117320   0.1029217  -0.8602679   0.7216188  -0.1221289
  -0.5691668  -0.1366229   0.5642588  -0.3934802   0.1543982   0.0676539
  -0.0714209   0.4272277   1.2101929  -0.4344299  -0.1254497   0.3640139
   0.3674075   0.1033832  -0.0328311  -1.6612664  -0.1279788  -0.8618422
   0.4166237   0.0594350   0.3636243   0.0313069   0.0077189   0.1779308
   0.1583975   0.7889338   0.6795537   0.1729408  -0.8041806   1.5217071
   0.1427625   0.0140991   0.1771666  -1.2555876  -1.1850202  -0.3746650
  -0.3908003   1.0709870   0.1628317   0.2240916  -0.0806926   0.0890614
  -0.4299351   1.1940261   0.9893125  -0.6227983  -1.4898784   0.8520133
   0.0420488  -0.0943988   0.0162306   0.1838504   0.5919371  -0.8175663
   0.1444693  -0.9449946  -1.5439193  -0.0698419  -0.1838076   0.3990466
  -0.2138118   0.4849751  -0.5960521  -0.3057730   0.7935295  -0.9066776
  -0.3693275  -0.2356380  -0.0865139  -0.2688662  -0.0844780  -0.1116348
   1.2361059   0.1415459   0.2641262   0.3067326  -0.1769807   0.0179620
   0.5338524  -0.5913832   1.3657577  -2.0098250  -0.0302356  -0.2664995
   0.0494784  -0.0042438   0.1571225  -1.7978724   0.3978787   1.1274813
  -0.8998399  -1.0193563   1.0093641  -0.1791344   0.0692951   0.0970783
  -0.9708357   1.1842315   0.0354210  -0.1080639   0.1775428  -1.2064976
  -0.0621456   0.4746994   0.0747948  -0.4792415   2.1631832   0.2220902
   0.4031774   1.8286716  -0.8917847  -0.0657223   0.1838763   0.2971572
  -0.4006376   0.4415450  -0.7082719  -0.5399702  -0.4984253   0.0631981
   0.0337373   0.0357684   0.1309541   0.3115435   0.4288069  -0.3114675
  -0.8651921   0.3927295   0.4000775  -0.1666642  -0.1133321  -0.2707124
  -0.2882136  -0.4300872   0.2286335  -0.1120493   1.3207583  -0.7445830
   0.2460308  -0.1098730  -0.0355009   1.1399601  -0.7771482  -0.1977524
   0.0897262  -0.7700947   1.4446671  -0.0696359  -0.1982959   0.2085067
   0.3476279  -1.0275427   0.4709555  -0.1993404   0.7885587   1.4220611
  -0.0055841  -0.0906418   0.0281960  -0.5140084   0.0561128  -0.3725974
   0.1715579   0.6582009   0.8636011   0.0842083  -0.3033449   0.1234337
   0.4236488  -1.8113548  -1.2772331   0.2787750  -0.6228872   0.5699438
  -0.1709432  -0.0973251  -0.0829255   0.4205607   0.0542905  -0.7312508
  -0.2351093   0.3334124   0.1336721  -0.0322857   0.1899778   0.2623569
   0.5917072  -0.4720515   0.4390598  -0.3617299   0.2565199   0.5113150
   0.0276520   0.0825152   0.1067476   0.0440669  -1.9489094  -0.4609214
   0.5463566   0.6872182   0.2966233   0.3030994   0.2751920  -0.0678654
   0.5041436  -0.2162685  -0.4713143  -1.2768171  -0.2187297  -0.0940218
  -0.0047757   0.1426270  -0.0880221   0.7496148   0.0624934  -0.0444115
   1.3230121  -0.4321113  -0.0901668   0.4148604  -0.1504562  -0.2017339
  -0.5614463   1.3225603   0.5439161  -0.5092630  -0.0976805   0.2711387
  -0.2208796   0.2662221   0.1867070   0.1627094   0.9621533  -1.2003344
   0.8749651  -0.0693884  -0.0366426  -0.2007239  -0.3348154  -0.6400313
  -0.4738106   1.1023118  -1.2200595  -0.8774546   0.2820556   0.2065104
   0.0672984   0.1909159   0.2728614   0.1431516  -0.2258713  -1.0340331
  -0.8463685   0.8430689  -0.1406704  -0.1576082   0.6529183   0.1312038
   0.2917220  -0.1291989   1.6094975   0.1775418   0.1675230  -0.3892745
  -0.0456248  -0.2530162   0.1012245   0.0064016   0.5658113   0.1072270
  -2.8668275  -0.7055438  -0.2701504  -0.0080617  -0.0776817  -0.0212434
  -0.3342701  -1.4602621   0.3058904   0.3081028  -1.0385785   0.5154358
   0.2610351   0.1173448  -0.0207656  -0.1423928   0.9789807   0.3124390
  -1.7173519  -0.0501772   0.1749513   0.4517875   0.3111699  -0.1749703
   0.5831921  -0.1461806  -0.3763681   0.6984268  -0.3849638   0.0754781
   0.1661145   0.1198811   0.1662152   1.0623022   0.3579501  -0.6832529
   0.2448529  -1.8026586  -1.0357518   0.0273079   0.0201847   0.1175039
   1.1512210  -0.6659600  -0.2798552  -1.4541130   0.7818195   0.1180835
   0.2123149  -0.0695764   0.1131116   1.4507895  -0.2387629   1.6136935
  -1.6957679  -0.1038190   1.0999923   0.0333929   0.0568090  -0.1739878
   0.8213777  -1.2089554   0.3728995  -0.5097450  -1.6669027  -0.4527440
   0.0246945  -0.1527694  -0.0679659  -0.7209448  -0.2278193  -1.1086034
   0.8019106  -1.0450503  -0.9926286   0.5358978   0.0726383  -0.1345495
   0.4801990  -0.2780800   0.2145772   0.1202427   0.9420254   0.6104343
  -0.1589582  -0.2969325   0.0689456  -0.0716878   0.8312414   0.3725857
  -1.4653596  -0.1894742  -0.5130498   0.0239607   0.0979499  -0.0626886
   1.4132011  -0.3782479  -0.8620815   0.0491637   0.6748167   0.9589271
  -0.0859712   0.0075586   0.0906910  -0.5819026   0.5112667   1.1663277
  -0.4869330   0.4243516  -0.2854598  -0.3859032  -0.1175796  -0.1038688
   2.0447366   1.0555137   0.3230690  -0.5759608  -1.0468589  -0.6785669
  -0.2675620  -0.0850270  -0.0874104   0.9699185   0.1081532  -0.1582324
  -0.6249927  -0.0136535   0.0942311  -0.3308557  -0.0392158  -0.1682629
   0.2464158   0.8770480   0.2658997  -1.0278852  -0.0171269   0.5610737
   0.3153010   0.3547849   0.1539100  -0.7762012  -0.4640821  -1.0018755
   0.1508909   0.3657926   1.2497784   0.2393866  -0.2736202   0.0232288
  -0.4547611  -1.1321272  -0.4510314   0.0066042  -0.8584843  -0.1776536
  -0.1465305   0.0216372   0.3538884   1.6214747   0.4125777  -1.3823725
   1.2857065  -0.5561699  -0.0225811  -0.1100770  -0.1928160  -0.0619792
  -0.2163670   0.2377248   0.1174581  -0.5363929   1.5028203   0.6029412
   0.2221868   0.0222158   0.0191479  -1.8129263  -0.6577568  -0.5728057
   0.3564026  -0.7435465   0.9599084  -0.1962778  -0.0492186   0.0467778
   1.4375199  -0.8999333  -0.0798926  -0.5565484  -0.3216194   0.5760744
   0.0230812   0.2355794  -0.1456646   0.1126968   0.0971368   1.0451747
   0.7850577  -0.0174379  -1.0237410  -0.2293298  -0.0795747   0.3220245
  -0.0390558  -0.5830105   2.2419925  -0.2914784  -0.3920981  -1.0109801
   0.0108494  -0.1273102   0.1024380   0.9981358   0.3809121   0.6973826
  -0.1486845  -0.7763404  -0.1980166  -0.0786553   0.2672865   0.3348238
  -0.3437032  -2.0307996   0.5786160  -0.6040816  -0.5996051   1.3825741
   0.1191012   0.0653074   0.0073722   0.9898120   0.4550026  -0.6514425
   0.4923345  -0.1473642  -1.9814950  -0.0919397  -0.3845651   0.4101171
   0.7273681   0.2345987  -0.4454061  -0.8220520   0.5925817   0.0186690
  -0.2768375   0.0678915  -0.0662571  -0.1776061  -0.1659651  -0.3115435
   0.3714183   0.4217646  -0.0799780   0.1045527   0.0068007  -0.1633115
  -1.1588906   0.0680622   0.3520327   1.4205296   0.7364356   1.1316003
  -0.1956650  -0.1548056   0.1769410   0.4838909   0.2902817   0.6803379
  -0.4781986   0.0154881   0.3952794   0.0397084   0.2231691  -0.1421680
  -0.1463583   0.1410473  -1.5186436  -1.3100045  -0.1531668   0.3068473
   0.0304349   0.0410189  -0.0418302  -0.0832300  -0.8343595  -0.6311439
   0.5269942   0.7561112  -0.7752322  -0.0028239  -0.2593314  -0.0028178
   0.4729438   0.0596980   0.0100405   0.4874470  -0.0247700   0.9073407
   0.2795707  -0.1544525   0.0164720   1.5758053   0.3920569   0.3711508
  -1.2534130  -1.1306858   1.8235973   0.1803226   0.3827853   0.0728423
   0.0831846  -0.7408231   0.9819627   0.3601958  -1.5173050  -0.0531613
   0.0174161  -0.1223715   0.1463598   0.4959130   0.2064263   0.1096743
  -0.9187433   0.3250268   0.3175671   0.1865758  -0.5095540   0.6106507
   1.2220474  -0.8886367  -0.1664665   1.2275398   1.0192603  -1.4029696
  -0.0265842   0.0127606   0.0627256  -0.5638726   0.3250005   0.1671256
   0.2150091  -0.8973779   0.4243194  -0.0253231   0.2869768   0.2904567
  -0.4140176   1.0794344   0.0609997   0.9920870  -0.4709724  -0.2963759
   0.3615240  -0.2755690  -0.0808986   0.5802881  -0.0146976  -0.5945198
   0.6885399   0.1045606  -0.2261682  -0.0103972  -0.1062951   0.1676952
   0.8404610   0.7926795  -0.8027464  -0.7247422  -0.2126997  -1.1359998
   0.1531240   0.0452022  -0.4428535   0.1188133  -0.3319866   0.4049632
   0.5576544  -0.4440718   0.2756478   0.3942930   0.2454241  -0.4938509
   2.1594477  -1.1612740  -1.7484176  -0.4485072   1.1557882  -0.0507185
  -0.1071862  -0.1492587  -0.2765126   0.3256455  -0.3485232  -0.5467841
   1.0944886  -0.7196375  -0.5807795  -0.3418446   0.2262608  -0.0856405
  -0.2778088  -0.1132144  -0.4078582   0.4168514  -0.0964938  -0.2419693
  -0.1124524  -0.0705154  -0.1874869  -0.0421540   1.0986390  -1.2867298
   0.3125930   0.4840717   0.1102637   0.1909935   0.2242399  -0.1412612
   0.4236059   0.0703650  -0.6583468  -0.7332697   0.4203366   1.1551386
  -0.1511408  -0.1065962   0.0537601  -0.9308281   0.5674363  -0.1712029
  -0.7573168   0.2075559  -0.6355105  -0.1447092  -0.1174868  -0.0419408
  -0.1740356  -0.3208988  -0.2065786   0.4399875  -0.7939197  -0.2370841
  -0.4698248   0.0862486   0.1647890  -1.1797868  -1.4756751   0.4371830
   1.0699955   0.0458961   0.3680054   0.0105546   0.1986791   0.3276701
   1.3954514  -0.8465601   1.5449785  -0.5382414  -0.3789367  -0.0118825
  -0.0542682   0.0979358   0.1407518   0.4091080  -0.6361277  -0.7256845
  -0.4282755  -0.1092235  -0.8115647  -0.1858760  -0.0483967   0.3214362
  -0.6998189  -0.6698207  -0.5762093  -0.2599852   0.6308982   0.4075836
   0.0379810  -0.0065279  -0.1821843   0.6804218   0.0418315  -0.3986056
   0.4632658   0.3871786  -1.6484995   0.1431774  -0.0233313  -0.2154064
  -0.3545749   1.5468431  -0.7879366  -0.1149413  -1.6610212   0.5888557
   0.2892860   0.0769429  -0.0092937  -0.2803065   0.5296391  -0.2012716
  -1.9308192   0.4092430   0.9497435  -0.1234867   0.2628018  -0.0423915
  -0.3151503  -0.4549043  -0.7472377   0.0346118   0.4100846  -0.5557286
  -0.0820065   0.1708432   0.1711269   0.1970025   1.0805026  -0.5746702
  -0.2956813  -0.4291774  -0.7807229  -0.0655799  -0.1706516   0.2008466
  -0.2002183  -1.3510824   0.8937628   0.8569984   0.3644743  -1.2568909
   0.0781470   0.0723598  -0.1605567  -0.0015686  -0.5936636  -0.8993967
   0.6352417   0.4212874   0.2236473   0.1009638   0.1986569   0.4130894
  -1.6923025  -0.0101941   0.0254867  -0.1564720  -0.9190615  -1.0557092
   0.1350177  -0.0054446  -0.0165614   0.2927536   1.2139499   0.9709389
   0.3808698  -0.2838228   0.9313311   0.1080478   0.0805803   0.2432311
   0.2006481  -0.9244388  -0.1145582   0.4365206  -0.0968581   0.4182692
   0.3304685  -0.1779279  -0.0013406   0.7228772  -1.1467208  -0.6258993
   0.3969117  -0.9692818  -0.4453529  -0.3583043   0.2988310  -0.0172127
   0.8426858   0.4995500  -0.4363677   2.4263144   0.3947392   0.4981490
   0.3316946   0.0543918   0.0152130  -0.0924915  -0.4106819   0.6174206
   0.0743995  -1.1336701   0.3587609  -0.2331607  -0.2574017  -0.1445389
  -1.0308561   1.5301108   0.8036879   0.5054592   0.4687679  -0.4841796
  -0.1455744  -0.3087652   0.0201105   0.5211549  -0.2087926  -0.4325255
  -0.4164545  -0.2679928  -0.5183380  -0.1891991  -0.0045485   0.0549166
  -1.0955942   0.3375868   0.7229437  -0.3693008  -1.9235005  -0.4223287
   0.2231049  -0.1243516   0.0746233   0.2399565   0.3898624  -0.6359251
  -1.2977560   1.1447850   0.9585642   0.0957373   0.1434947  -0.0381469
   0.9844210  -0.0238067  -0.2706650   0.1500853  -0.5872215  -0.8153930
   0.2676457  -0.1691918  -0.0497913  -1.2804524  -0.2191751   0.8382047
   0.5190253   0.0574682  -0.3350333  -0.0166676  -0.2329445   0.0006176
   0.0027891   0.2278245   1.1479709  -0.0824216  -0.5699497   0.2144942
  -0.4397763  -0.4441916  -0.0587655   0.6181731  -0.8339826   1.1600873
  -1.2100769   1.6596233  -1.3351732   0.2661235   0.0736451   0.1448198
  -1.0172589  -1.2166474   0.2608570  -1.0405960  -0.3875076  -1.6115382
   0.3666790   0.0101587   0.1291139   2.2064095   1.1847500  -0.0388181
   1.1038131   0.8816377   0.1850416  -0.1683863  -0.1195380  -0.3502300
   0.7680801  -0.1617520   0.2830066   1.8708158  -1.9727889  -1.2221755
   0.0147859   0.0491484  -0.3086543  -0.5940855   0.7221676  -0.6606517
   0.0985857  -0.0121241  -0.5619164  -0.0963633  -0.1959714  -0.3542989
  -0.1808386  -0.8329034   0.2140957  -0.4533078   1.1363175   0.7026968
  -0.3158190  -0.2545774   0.3485157   0.6310731  -0.9125451  -0.6040670
  -0.5428221  -0.7702855   0.3854928   0.0823205   0.2579030  -0.0859308
   0.4576050  -0.5101340  -0.4993175  -1.1683538   0.5126066  -0.1316689
   0.0127674  -0.1159692   0.2093558   2.0079529   0.3784826   0.2957384
   0.4673865   0.4733828   0.4887217  -0.2739677   0.0993675   0.1993345
   1.4899579   1.0060347   0.1824393   0.9200241   0.1673428  -0.1463200
   0.2254707   0.2043234   0.3168800   0.1713193   0.8964667   0.9913054
   1.3111675  -0.7952697   0.5463144   0.0016725   0.1005636   0.2939558
  -0.1567309  -0.3749774   0.5081733   1.7083414   0.3554656  -0.0947722
   0.1696299   0.1002603   0.2505808  -0.1126746   0.5920233  -0.5791146
   0.4710937  -0.1194434   0.6829323   0.1575223   0.2818908   0.0504319
   0.3314529   1.2034307  -1.8554894  -0.6197338   0.0001083   0.3403068
   0.0627887   0.1171247  -0.0105049  -0.8513701   0.4446144  -0.2049265
  -0.5941752   0.2966672  -0.0506727  -0.1491834  -0.1446344   0.0897185
  -0.5844179  -0.1092623   0.9300233  -1.4431298  -1.3220897  -0.8388414
  -0.0887854   0.0014064  -0.2544175  -0.9639618   1.6613780   0.1016272
   0.1689851   0.8171381   1.2381312  -0.0801111   0.1327155  -0.4999407
  -0.2564560  -0.9080543   0.6837166   0.5474623   0.8541129   0.7873362
   0.0338044   0.1002405   0.1534955   0.7222931  -1.0827417   0.9157764
   0.0718363  -0.4391417  -0.5316350  -0.2794520  -0.3043603   0.1138630
  -0.5848374  -0.3339673   0.3581888   0.8443023   0.0398253   0.2838971
  -0.0639637  -0.0294985  -0.2787858   2.2275085  -1.0380400   1.0207100
  -0.1543724   0.6957117  -0.0279064   0.2292068  -0.0042438   0.1785220
   0.3324530   2.8866339   0.8264268   0.1911658  -1.2031488  -0.0933900
   0.0099877  -0.0561144  -0.0257381  -0.2731236  -0.4922166  -0.5986990
   0.0918741  -0.3917534  -0.4649678   0.1286462  -0.2617268   0.0544659
   0.3246025  -1.2860773   1.2945505   0.0001480   1.0812117  -0.4230528
   0.2431416   0.1592924  -0.0197331   1.1772739  -0.3885633  -1.6372030
   3.1285658   0.4035076  -0.1015701  -0.0391428  -0.0181826   0.0737054
  -0.9975659  -0.4751717   0.0114646   0.1642231   0.2419791   0.9917387
  -0.0907827   0.4274825  -0.3227045   0.4497054   0.2833657   2.3893249
   0.5009216   0.1635578  -0.3133228   0.0406086   0.1036539  -0.3689010
  -0.3474052  -1.2190286   0.0934822  -0.8988404  -0.3380097   0.2609098
  -0.1282125   0.3068684   0.0505941   0.3566145   0.4846225  -0.1127622
   0.6714870  -0.3097689   0.7901106   0.2345497  -0.1696441   0.2947475
  -0.2741884   0.1274711  -0.0481928  -0.8453411  -0.5388443   2.5836744
  -0.1444329  -0.2280704   0.1039543   0.5171028   0.5546603  -0.2676809
  -0.6273036  -1.5399890   0.0579947  -0.0452173   0.0683212   0.0180342
   0.4525703   0.0196723   0.6025283   0.0868810  -0.1633091  -0.5962118
  -0.1188934   0.0510070   0.1218971   0.2871272  -0.4472578  -0.6223164
  -0.1595641   0.7228796  -1.2913994   0.0696381  -0.4743380   0.2125786
  -0.9259987   0.7325608   0.0665964   0.4230665  -0.1399115  -0.6450309
   0.3559076  -0.1025606  -0.0006109   0.1510313  -0.5344802  -0.1288186
  -0.8684189  -0.8490428  -0.9588071  -0.2437583   0.2708827   0.1197706
  -0.8925773  -0.4496426  -0.3692669   0.2313387  -0.5554172   0.3447390
   0.0098222   0.1340502  -0.0022678   0.4751688   0.3456951   0.4180374
  -0.0929377  -0.2016169  -0.5616765  -0.2794481  -0.2039860  -0.0069898
  -1.8753940   0.4168115  -0.0663914   0.3564642   0.2531969  -0.6505294
  -0.3792399  -0.1136631  -0.3756552  -0.0883820  -1.3150147   0.8933111
   0.6877686  -0.5353526  -2.4313161  -0.2804702   0.1528323   0.5244729
  -0.6111103  -0.2487736   0.4760413  -0.2580235   1.1670926  -0.5969391
  -0.1402644   0.0249112  -0.0053205   1.4050574   1.5581263   0.5383735
  -0.0813050   0.0960063  -1.0268303  -0.2257300  -0.0524490   0.0324341
   1.3190029   0.2438475  -0.9540732  -0.7561641   1.9848826  -0.3006008
   0.1866302  -0.0370725  -0.1013407  -0.5899552   0.4085963   0.7091071
  -2.1299119  -0.7878946   0.7240820   0.1737934  -0.1565360   0.1269337
   0.4403145   0.9026368  -0.0869092   1.1285723  -0.1533012  -0.5563043
   0.1181257  -0.0505060   0.0239663  -0.6374943   1.2748713   0.4530625
   0.4959284   0.4786091  -0.0376358  -0.0261585  -0.1910234  -0.3970996
  -0.0629699   1.5295751  -0.3513051   1.0689838  -0.2004482   0.7062336
  -0.0230589  -0.0888650   0.2517573  -0.3045172  -1.4080627  -1.1771524
   0.4563497   0.0174200  -1.4623961   0.1865288   0.5436826   0.1503081
   0.3567415   1.2574207  -0.7785370  -0.6360282   0.8163948  -0.3582512
   0.3319022  -0.4264613   0.0047553   0.9347690  -0.2381794  -0.0869242
   0.0434308   0.0031566  -0.4384793   0.2584518  -0.1635561  -0.1532686
   0.7629704  -0.1606409  -0.2856861  -0.2294512  -0.6721752  -0.6684412
  -0.0137594   0.1639280   0.0551978  -0.4545204   0.9266226  -0.1882647
  -0.1933611   0.3820201  -0.6578352  -0.0878692  -0.0905929   0.0599423
  -0.3596900   0.3780425  -0.6676276   0.1674255   0.1985460  -0.5378271
   0.0812782   0.0090755   0.0928867  -1.1361072  -0.2176364  -0.0296516
  -0.6192600  -0.5687495  -1.0861998  -0.4929492   0.2601711   0.1868119
   1.4072993   0.9349920  -0.0878186   0.7800947  -0.1913326   0.8433743
   0.0912081  -0.5290315   0.0213355   0.2408464  -0.1039475  -0.3469519
   0.0445523  -0.4935890   0.0640335   0.2803140   0.4190471  -0.0691860
  -0.1102596  -0.6535307   0.2620959   0.3164936   0.2497014   0.1475471
  -0.3773555  -0.1117895   0.3049490  -0.0951054  -0.3255766  -0.7579247
  -1.3719035  -0.8592238   0.1188722   0.2455210  -0.3882839   0.2480653
  -1.4309537  -0.0674842   0.1136599   1.6177716   0.7231218  -0.7662658
  -0.4637474   0.2296265  -0.1076540  -0.6412174   0.0353159   0.3880633
   2.2793775   0.0217879  -0.0449607  -0.0564617   0.2778948   0.0218870
   0.3785619   1.1189922  -0.2102797   0.1299537  -0.0056945   0.7602429
  -0.1053637  -0.0563988   0.1061375   1.5032129   1.7014804  -0.3528151
   1.2380759  -0.6091840  -0.5203868   0.3189048  -0.5124401  -0.0099918
  -0.5861169   0.5422158  -0.2282084  -0.0810488   0.6127783  -1.2690266
   0.0865339   0.1046541   0.1941293  -1.2073244   0.0811871  -0.0324174
  -0.0926917   0.4723693  -0.3270485   0.2012557  -0.2789806   0.1943455
   0.0809673  -0.8229558   0.3019899  -0.4149987  -0.1548555   0.0963035
   0.1467991  -0.1735898  -0.0857807   0.3426614   0.1223451   1.2418430
   0.4949963  -0.4909280  -0.1578676  -0.0611654  -0.2985568   0.0085671
   0.1373596  -0.6186368   0.9518631  -0.1075788   0.5621585   0.7823309
  -0.0691439   0.1098565   0.1175908   0.4580912  -0.7323877  -0.3313343
  -0.8916197   0.3049466   0.3474786   0.0533734   0.1559692  -0.3175452
   0.2570371  -0.0417485   0.8925459  -0.0040499  -0.7948413   1.8371207
  -0.1246656  -0.2291030   0.0138766  -2.3181555  -0.5711963  -0.7959346
  -1.6845659   0.6051918   0.6031515  -0.1391100   0.0338941   0.0568443
   0.0671066   0.2016361  -0.3147804   1.3089110  -0.5764322  -3.0243797
  -0.0195492  -0.0903823  -0.2606397   0.4927810  -1.1613032   0.3436091
   0.0798259  -0.2991534   0.7585976   0.1456790  -0.4720197   0.4772380
  -0.3224288   0.2306160  -0.1779459   0.7373042  -0.2753859   0.5517460
  -0.2401947   0.0094351   0.2598079   0.5247499  -0.8450280  -0.6498218
  -1.2960898  -1.2490036   0.7806517  -0.0339925  -0.4437487  -0.0910422
  -0.9461889   0.1988999   0.1224418   1.2830193   0.4534121  -0.0886107
   0.0627656  -0.0705735  -0.3128079   0.1208521  -1.6383958  -0.2129931
  -0.3711135   0.1010525   0.9495023   0.4220368  -0.4014324   0.1940338
   1.0089816   0.0343129  -0.4898425   0.8984070  -0.1710050  -2.0249772
   0.2194063   0.0434882   0.3595636  -0.9776656   0.5586782  -1.4129908
  -0.3302156  -1.0655631  -0.2754463  -0.1535940   0.0808960   0.0252260
   1.2198156  -0.2595747  -0.0939083   0.0156529  -0.0824522   1.1890854
  -0.1813120  -0.0943393  -0.3330745  -0.5648859   0.7263483  -0.4289889
  -0.5359712  -0.6799697   0.9827855   0.2413955  -0.3629126  -0.0886754
  -0.1733565   0.2440739  -0.8923227   0.5257047   0.3285454  -0.7647747
  -0.0502383   0.2106507   0.2693801  -0.7011338  -0.4830830  -0.8100075
   1.1755224   0.2863187  -0.8308100  -0.0238435   0.1345238   0.0116301
   0.5663087   1.7671658  -0.8248855  -0.4919297   0.3930319  -0.2569496
  -0.0322882  -0.0195901  -0.2118992   1.7542202  -0.7653493  -1.3573046
  -0.3800488  -0.7875584   0.4103783   0.0755979   0.4517312  -0.1019659
  -0.3663940   0.3789566  -0.9865441   0.6682490  -0.0841318   0.2687974
   0.2312648   0.3939379  -0.3566127   0.3453768   0.1653770  -0.2107819
   0.1305875   0.1313117   0.0453723  -0.2409828  -0.0236711  -0.1373209
   1.9573436  -0.8239589   1.1017118  -0.4702781   0.8513038  -0.2347042
   0.2868807   0.1001185   0.0715597   0.2258563   0.2105988   0.1399833
   0.0724482   0.4213307   0.6299989  -0.3157676  -0.0937374   0.3272940
  -0.8359180  -0.4448923   0.5907959  -2.5976863   0.6955053  -1.6326104
  -0.1042405  -0.0894096  -0.1935528   0.9348938  -0.1700190  -1.0199887
  -0.7960285   0.6301454  -1.3725845   0.0844460  -0.3132076   0.0097124
   0.7112309  -1.2309406  -0.1475397   0.2870746  -0.2853868   1.4904249
   0.3641012   0.1886973   0.2311226   0.9588237   0.3251999   0.5359201
  -1.2452475  -0.3035136   1.1542956   0.2336200   0.1171558  -0.1259501
   1.5786555  -0.3354244  -0.8960358   0.0495163   0.2085793   0.1358360
   0.3141270  -0.0872181  -0.0066256   0.9749377  -0.0002829   1.6087538
  -2.1282744   1.3478936  -0.5477317   0.0484568  -0.0752374   0.1733222
   0.8796304  -1.5889436   0.3555093   0.2111484  -0.2923834  -1.3013357
   0.2336494  -0.0385847  -0.0226433   0.0768115  -0.6152025   0.0190108
   0.4977187   0.9722136   0.2790124   0.3304058  -0.4118337  -0.1173152
   0.5688493   0.6888058  -0.1615282   0.2160636  -0.5211211   0.4741541
   0.0484162   0.1180363  -0.2246210  -1.5941786  -0.4877773  -0.1303423
   0.5547017   1.0690970  -1.0722777  -0.1513807  -0.3231323  -0.0404513
  -0.4853921  -0.1197536   0.1023313  -0.4564638   0.6169456   0.7614405
  -0.1253274  -0.0258699   0.0343838  -0.7753370  -0.0776646   0.1046231
  -0.9677931  -0.2356381  -1.7804046   0.2034268  -0.1654088  -0.1516090
  -0.2250389  -0.8982949  -1.8323852   0.4514751   0.5589973   0.9108586
  -0.1390446   0.0822453  -0.0724776   1.6241019   0.0043672  -0.1667643
   0.2856484   0.0035721  -1.1625346   0.0106354  -0.2283299   0.3325489
   0.5062060   0.1008116   0.0071823   0.1038033  -0.0037016   0.6462585
  -0.0088044  -0.0108114  -0.0414185  -0.0084203   0.5636863   0.4153219
  -1.0375122  -0.4278464   1.0273679  -0.1193061   0.2312778   0.1149314
   0.5750411  -1.2113880  -0.3084901   0.1250021   1.4813000  -0.6529025
  -0.0708487   0.3524853  -0.1014940   0.4910490   0.4827153  -1.2820079
   0.3269777  -0.6920201   0.1374434   0.3768596   0.0033846   0.2682069
   1.0851388  -0.0400477   0.6853254   1.1993574   0.1943969   0.8325364
  -0.1756462  -0.1760677  -0.1753651  -0.7961766  -0.3229088   0.1756738
   0.8759676   1.0334301   0.2593511   0.1350999  -0.0458995   0.1307209
   1.0311064   0.3938045   0.3849165  -1.7778236  -1.2621551  -0.0504268
  -0.1836096  -0.0119224   0.0083588   0.1631552  -1.0095704  -0.1906875
  -0.9898936  -0.3017814   1.1651437  -0.5614216  -0.4389071  -0.1227235
   0.2548099   1.9579463  -0.4598093  -0.2818429   1.0631628   0.5319659
   0.3686472   0.1561265  -0.0088395   0.6182938   0.2738685  -0.6020616
  -0.9227228  -0.1626650   0.8396997  -0.0491484  -0.1395765  -0.1782708
  -0.1713631  -0.2157004   1.3450632   0.5501326   0.5087054   0.0301136
  -0.1458388  -0.1509193   0.5521618   0.4227671   0.6531159   1.0772918
  -1.7704449  -0.7486203  -0.4233855  -0.0379884   0.1193789   0.2880433
   0.3153136  -1.0848638  -1.0377555  -0.3752586  -0.0153332   0.5968909
   0.0522286  -0.2932706  -0.0315648   0.6651431  -0.3217298  -0.4998620
  -1.9964970   0.1786166   1.4236948  -0.2063072  -0.0347212  -0.1542868
   1.0619448   1.6082134  -1.2020072  -0.7878851  -0.0404422  -2.0819206
  -0.0439803   0.1490162  -0.1015308   0.3320720   0.5564150   0.3152603
  -2.2327268  -1.9308795   0.0625996   0.1869545   0.2178584  -0.3194127
   0.0094731   0.3835444   0.1821826  -1.5020471  -1.0417852   0.1974579
   0.0889812   0.0522585  -0.1557516   0.1471606  -0.3895667   1.2827842
   0.4364923   0.9275844   0.5678525  -0.1684363  -0.0704833   0.1145517
  -0.3182666  -1.5384663  -1.3803067   0.3394740   0.6240416  -1.4694669
  -0.0549579  -0.1783229   0.1105624  -0.3409933   1.2922603   0.4478368
   0.1708418  -0.5222673  -0.3050376  -0.5786316   0.1202582  -0.1830623
   0.3790099   0.6429815   0.6317767   0.0459509  -0.7664742   1.2483213
   0.0870366   0.0548685  -0.1580319   0.3763286  -0.2139080   0.4572410
   0.0780858   0.8520033   0.3871227   0.3863761  -0.1633309   0.2398018
  -1.3273011   0.2291557   0.3596562  -0.1010832  -0.0810515   0.5199732
   0.0093277  -0.0405993   0.1479056  -1.4775590  -1.5655123  -1.1270550
  -0.9637794  -0.3313194   0.3071795   0.1721031  -0.1035563   0.0885151
  -1.0039035  -0.0418371   0.4424519   0.2855274   0.4694949   0.0866112
  -0.0390355  -0.2227191   0.0090327   0.9611419   1.2794017   0.0150756
   0.0964594   0.8344203  -0.3831461   0.1476859   0.5010483  -0.0347800
   0.4581602   0.3214257  -0.2989477   0.9190913   0.3357281   1.2739732
   0.1385424  -0.1936973  -0.0661465   1.4031796  -0.3552828  -1.3004354
   1.5180519   0.1065329  -0.6766347  -0.0027310  -0.2078532   0.2683697
  -0.6765074   0.8637167  -1.4803947  -1.2489588  -0.6685675   0.2521185
   0.1000899   0.0726446   0.1997216  -0.2890993   0.4627164   1.1532520
  -0.6751514  -0.3362336   1.9336205  -0.1005873   0.0674524   0.0275057
   1.8368328   1.0678414   0.4040373  -0.5842708  -0.7460906   0.9590952
   0.1571834  -0.0563962  -0.1533604  -0.4861296   1.4767920  -0.4928478
   0.4553290   0.6945885  -0.8489579  -0.3041677   0.3389342   0.1281386
   0.3219641  -0.3586400   0.2916388   0.5787548  -0.8744650  -1.7803068
  -0.1761971   0.0366417  -0.2234985   0.7298391  -0.0485967   1.1987047
  -0.3492537   0.1787956  -1.4745682   0.1955825   0.0724683  -0.0368136
   0.1113489   0.7513142   0.5943928   0.1057726   0.6217856   0.4499506
   0.0672258   0.1424367   0.1494595   0.6700482   0.8957482  -1.6219802
   0.4374693   0.6392248   0.2461719  -0.0503742   0.0848403   0.1378947
  -0.0712229   0.4984323   0.3250126  -0.4214353  -0.4344282   0.2685719
  -0.1045438   0.0726159  -0.1691093  -1.0645473   0.6289725  -0.2732112
   1.9955508   0.5154936   0.0295074  -0.0924811  -0.2592739  -0.1824512
   0.5754943  -0.9702555  -0.3318017  -0.5549276   0.2259912   1.0730126
   0.2450139  -0.1301949   0.0112209   0.2184822  -0.7363081  -1.3892668
  -0.1481232  -0.4071491   0.9540399   0.0496261   0.4202047   0.2057942
  -1.5321817  -0.3067768  -1.4052371  -0.4034399  -1.2674088  -0.4157279
  -0.1558394   0.0153477  -0.0071871   1.3636118   0.5030966  -1.4267071
  -0.0364054  -0.3197942  -0.0200164  -0.0973082  -0.4119617  -0.2831806
   0.1312523   0.2874956   0.6614197   0.2757951  -0.5460113  -0.4491830
   0.0012340   0.1616849   0.0167126   0.0004922  -0.4864926   0.6403995
   1.1296564  -1.0722412   0.4348390   0.2897392  -0.1434861  -0.0140333
   0.5383193  -1.4419562  -0.4761515  -0.3954440   2.3044863   0.7054023
  -0.1615028  -0.0530184  -0.1060654   0.2504429  -0.9008409  -0.1419924
  -1.4349427   0.2384661   0.1172617   0.1657261   0.2137854   0.2930317
  -0.4047360  -1.4233179  -0.1292178  -0.3771709  -0.3231309   1.2432424
  -0.0795031   0.1504968   0.1266883  -0.5911334  -1.2848922  -0.5662738
  -0.0453760  -0.3462537  -1.6996107  -0.0790103   0.2380643  -0.2575506
  -1.2035811  -0.6601208  -1.2089406  -0.8281108   1.0688428  -0.4754233
  -0.3374432  -0.1081141  -0.1969106  -0.0510406  -1.2228181   0.7550678
   0.6686790   0.7437701   0.2391392   0.1246337   0.1956400   0.0037463
   1.2444547   0.2622084  -0.9582156   0.0627550  -0.7312381  -0.2612386
  -0.3017711  -0.1624767   0.0808066   2.1317856  -0.9506066  -0.1926727
  -0.2777791   2.2408881   0.1524732  -0.1080392  -0.0499311  -0.1209620
  -1.7564980  -0.2277076   0.2817405   1.1018870  -0.0551064  -0.5288732
  -0.1878447  -0.3424979  -0.0424785  -0.2635507  -0.7298668  -0.8223243
  -0.2948528  -1.7321647   0.7278265   0.1278248  -0.1740928  -0.0440549
   1.5438157   0.2912013   0.7295577  -1.4536288  -0.0561610   0.4532044
  -0.3479240  -0.1894685  -0.1793048  -0.1606914   1.2833655  -0.1603241
  -1.0123019  -0.1796516  -0.5615122  -0.1332423   0.3341772   0.0754216
  -0.7116709   0.4332871   0.2649736   0.2802739  -0.4136333  -0.2632949
   0.1561396  -0.3082373   0.2374216  -1.7434642  -0.1748866  -0.7471496
  -0.1214423  -0.2795540  -1.5490012   0.1104435  -0.2294948  -0.0775928
  -0.7959489   1.0113008  -0.1014415  -0.0067312  -0.3959239   0.9389977
   0.0267118   0.3084286   0.2090490  -0.6715646   0.5869963  -0.4922044
  -0.0054706  -0.5427482   0.3678377  -0.1311724  -0.2173046  -0.1087360
   0.0574564   0.3171284  -0.1313168   1.5414689  -0.7379595  -0.3049561
  -0.0673324  -0.2572861   0.1831952  -0.0529445   0.3280554  -0.6372057
  -0.6923490  -0.5270953   0.6297551  -0.0224760   0.2432873  -0.0939390
  -1.3058419   1.0743654   0.3586528   0.6562941   0.2403125   0.5319862
  -0.0171883  -0.0903984   0.0813655  -0.3726452   0.3533232   0.2062339
  -0.8183699  -0.7901211  -0.3810533  -0.1126450   0.1733939  -0.1063997
  -0.7304222   1.2757024   0.5638890   0.3944704  -1.0131420  -0.5191112
  -0.1536628  -0.1329938  -0.4588842  -0.2146043  -0.1404486   0.6271554
   0.6483562  -0.6038888  -0.8078358  -0.3756878  -0.1181187   0.0723669
  -0.0899669  -0.9769849  -1.4240481  -0.0955413   1.0669668  -0.0439110
  -0.0639882   0.2898311  -0.2943784  -0.3056939  -0.3771732   0.8809559
  -0.8270594   0.4710555  -0.0417441   0.1001017   0.0985960  -0.0171167
  -1.2331927   0.7378880   0.5064371  -0.6902130  -0.1720436   0.4101276
   0.0930979   0.3460338  -0.1171409   0.4018421   0.9668040   0.9906304
   0.7966006   0.9180433   0.5569142   0.2221366   0.1294169  -0.1871618
  -0.1015397  -1.1035922  -0.6852974  -0.9904420  -0.7250205  -0.6798726
  -0.3058757  -0.0054835  -0.1335425   0.3824896   0.1455579  -0.9620504
   0.0324003  -0.4505104  -1.3122820  -0.0215085  -0.2212591   0.0151046
   0.1707390  -0.2275329  -0.1777930  -0.6111568  -0.1001504  -0.1057000
   0.0388432  -0.1097475   0.1908293   1.0305518  -0.1226526  -1.0518875
   0.6185114   1.0653203  -0.7057215  -0.1424864   0.3157435   0.0768465
  -0.2744920  -0.3284345   0.1442415   0.7886103  -0.2285335  -0.7145197
  -0.1005552   0.0167651   0.0742269   0.1092594   1.1084474  -0.4851058
  -1.1792710  -0.2528879  -0.4916919   0.0314829  -0.2072869  -0.0301337
  -1.2727596   0.1729952  -1.9578515   1.6701409   0.6539353  -1.0530118
  -0.1291483   0.3805995   0.0035293  -0.8516562  -0.3835544  -0.4067096
   0.8854049   0.2096136  -0.6404321  -0.0612092  -0.0974155  -0.0624305
   0.0894020   0.3723323   0.7023772   2.1230524   0.9080918   0.1190601
   0.1452856  -0.0007818  -0.1985940   1.5827576  -0.6326052   1.2488190
  -1.7682078   0.3106368  -0.4494496   0.2105494   0.1067360  -0.1022500
  -1.3899827  -1.1582353  -0.3472376  -0.0191079   0.3044868   0.1867470
   0.0722254  -0.1426266  -0.4456058  -0.4922309   0.7172852   1.2735263
  -0.2643445   0.4707542  -1.0617906  -0.0088159   0.2027892  -0.1818563
  -0.0421765   0.6927001   1.7547917  -2.1223652  -0.7311392  -0.0554706
   0.0612014   0.0880807  -0.3267758   2.5456297  -1.1205386  -0.1344053
  -1.3740667   0.8355103  -1.2485174   0.0273212  -0.1800397   0.0742362
  -0.0384225   0.3263789  -0.2163975   2.1691217  -1.1360117   1.0599905
  -0.1386801   0.2433987   0.0652340   0.1134384  -1.5171806   1.9369664
   0.1300278  -0.7669228  -0.4145356  -0.2792638  -0.3131159  -0.0400577
   1.3181714   0.1435313  -0.1773851  -0.8022833   0.3345746  -1.1131561
   0.1530187  -0.0798138  -0.0658924  -0.0742145   0.9392182  -0.3772891
   0.8325205   0.1778072   0.6737766  -0.0556318  -0.1860793  -0.1973494
  -0.0012643  -1.4717141   0.8816084   0.9537554   1.9593765  -0.9593410
  -0.0148812  -0.0788869   0.1074041   1.0799708   0.4192378  -0.1905446
  -0.2621238  -0.2182498  -1.1272773   0.0317161   0.0274265  -0.3113690
   0.5478448  -1.9662265   0.0227691  -0.6650755  -0.4193222  -0.2986721
  -0.0864896   0.1984940   0.0032469  -0.0200324  -0.1592574   1.1089461
  -0.3801841  -0.5987884   1.3924519   0.0713374   0.0875659   0.1730397
   0.2193025   0.5794938  -0.4006006   1.0258776   0.4537547  -0.1373275
  -0.0231548  -0.1286097   0.3085958   0.8901347  -0.4831679  -0.5340639
   0.6101326   0.9089220  -0.1339491  -0.1110002  -0.0418670   0.0161046
   0.4543747  -0.0943298   0.9360616   0.5500663  -0.5928189   0.6432416
  -0.0364720  -0.0103864  -0.3386764  -1.0318276  -1.3453323   0.1139905
   0.5428743   0.6211314   0.0314345  -0.3766680  -0.2950670   0.0765775
   0.0164741   0.4389858  -1.2170154  -0.2563378   0.8399464  -0.1932020
  -0.0164646   0.1921550   0.2029910  -2.2050519   0.4657021   1.0588524
  -1.6806598  -1.9615531   0.4572855   0.1735328  -0.1365038   0.2252606
   1.4329730   0.8213014   0.0204958   0.3848348   0.6967413  -0.1393933
  -0.1822750  -0.1503890   0.1248121   0.1326886  -0.0009408  -0.1997913
  -1.1462505   0.8584929  -0.5553001  -0.0105848   0.0025023   0.0254319
  -0.0891659   1.2657202  -0.3854664   0.6484196   0.5175717   1.4710144
   0.1829806   0.3157564   0.0523284  -0.0378632   1.4432540  -1.2651618
  -0.0270440  -0.5125874  -1.2844785   0.0648773   0.2103943  -0.0088497
   1.0394529  -1.3468620   0.8850487  -0.5033641   0.9726803  -0.6511403
   0.1807566   0.1162488  -0.1651721  -0.3375950   0.1627443  -1.8873694
   0.2708485  -0.4815131   0.1040076  -0.0812195  -0.2636101   0.0456181
  -0.4624952   0.0286579   0.3367659   1.0144198  -0.0537933  -0.1754334
   0.0600324   0.1501963  -0.0599671   0.7409774  -1.4237344  -0.7842489
  -0.1505929   0.7467418  -1.6801677  -0.0696481   0.4071238   0.0616613
  -0.0723217  -0.3524279  -0.6458889  -1.2446973   1.3883948   0.4596470
  -0.0832586   0.2287805   0.2345182   0.7493561  -0.9365445   0.7275478
   0.8417041  -0.1061942   0.4568977   0.0656042  -0.0999554   0.0602098
  -0.5412060  -1.1422862  -0.6691555   0.0486092   0.7783225  -0.7127751
   0.2342938   0.1199132   0.0445370  -0.4385788  -0.9342375  -0.2000394
   0.1459267  -1.0062966  -0.1428093   0.0342396   0.2328061   0.0686444
   0.2515631  -1.0485952   0.7709537  -0.0340565  -0.4130420  -1.5743947
   0.4545281   0.1184548  -0.1128845  -1.6991957  -1.5612411  -0.0461588
   0.8321650   0.4835113  -0.5242691  -0.0177412  -0.0053994  -0.1807361
   0.3659808  -2.2848406  -0.6130036  -0.4497536   0.0486705   0.2979679
   0.0310186  -0.1935159   0.0539373   0.7228574  -0.3654126  -0.4267726
  -0.5649338   0.8620458   0.4078930   0.1234810   0.0153627   0.2919071
  -0.3772393  -0.5696491  -0.9183151   0.0042567   0.0145672   0.2557541
   0.2380211  -0.1076238  -0.0320296   0.4492206   0.3944137  -1.4933643
   0.3213220  -0.6707777   0.2368363   0.1041009   0.4386857   0.0865206
   0.9731691   0.6413555   1.4022309  -0.3607478  -1.5335567   0.6354880
   0.2785846   0.0323518  -0.0986207   0.7736058  -0.6765569   0.9262828
   0.0172539  -1.4987135  -0.1388106   0.0528608   0.0939080   0.1543632
   0.8465134  -0.2679114   0.4293565  -0.0514577  -0.9152669   0.1442622
  -0.5895889  -0.0064255  -0.6293008  -2.1134698   0.0911215   0.3470201
   0.6484942   0.3886556  -0.0739301  -0.2471909  -0.2009127   0.1995518
  -0.8914733   0.3388544   0.2808570   0.3054645  -0.6769207  -0.0169730
   0.2481782   0.0899746   0.2687826   0.3208167   0.5870264  -1.5906494
   1.1043605  -0.7169856   0.7906722  -0.0557832   0.0372625   0.1835441
  -3.0681734   0.2264215  -1.4224606   0.7696199  -0.2509794  -0.2815558
  -0.0096151  -0.2456988   0.1597829  -0.9222210   0.5075128   0.8354300
   0.8586571   0.3396724  -0.7503310   0.1688239   0.0453064  -0.2616441
   0.1065395   0.2723833   0.3448450  -0.2217613  -0.6373618   0.3231592
   0.0735332  -0.2458774   0.2513390   0.4902572  -0.6176862   0.5919260
  -0.1524366  -1.2025875  -0.3454580   0.3027757   0.2823813   0.0205092
   0.6287071   0.1895444   0.7759752  -0.4564038   0.2307439  -0.9786114
  -0.1816470  -0.0628638  -0.1259720   1.0817089   0.2684351   0.5784209
  -0.6970828   0.3715036  -0.5597885   0.3564549   0.0740920   0.0249755
   0.2234687  -1.4784535  -0.3714736  -0.3640523   0.4638587   0.5685344
   0.3219786  -0.0151061   0.4238927   0.3272130  -0.5892784  -1.0430340
   1.3067466   0.9482692   0.2699914   0.0014193  -0.1260252   0.0326576
  -0.3484499   0.5469673   0.2778082  -0.1565247   0.3013843  -0.5266895
   0.4992557  -0.1701827  -0.1386197  -0.5534425  -1.1106883  -0.0308655
   1.1270748   0.1934154   0.5912105  -0.0016271   0.0547087   0.1176718
  -0.4940791  -0.1818593  -0.6738349   1.4092348   1.9316072  -0.0482703
   0.0712786  -0.0530041   0.3497873   2.0686097   0.3336264   1.3156040
  -0.4195728   0.8349168   0.1433587  -0.1751390   0.2759205   0.1142137
   0.2762476  -0.3817276  -0.1758451  -1.0959572   2.2807577   0.0792141
  -0.2108392  -0.0486020  -0.0338962  -1.2427424  -0.1507049   1.1010410
   0.2882526  -0.6672750  -0.6136765   0.0859822   0.0063850   0.3126490
  -0.4653142  -1.3947035   0.5684883  -0.6510141  -0.9696215  -0.6111200
   0.0122263  -0.1646724   0.1658382   0.8619978   0.1549369   0.4184048
   0.5384712  -0.0849915   0.8697172  -0.1174219   0.0415875   0.0574688
   0.3674782  -0.9151201  -1.0818605   1.7426960   0.0410642  -0.6877127
  -0.0176090  -0.1098106   0.3183791   0.5495332   0.9379514  -1.2749293
   0.4845215  -1.2203225   1.0986719  -0.5211276   0.0409479  -0.2282452
  -0.9728223   0.8748217  -0.9217438  -0.2720581   0.6403666   1.0567764
  -0.0617837  -0.2690849   0.2618822   0.3402608   1.2007419  -0.3336326
  -0.4996781   0.0548812  -0.0605224   0.2968703   0.0669245  -0.1647104
   0.7088389   0.2450012   0.0690300  -0.2132063  -0.9757211   1.2117714
   0.0543646  -0.0083968  -0.0020845  -0.0608052  -0.4233634   0.7099702
  -0.7829252  -0.1042717   0.1221957   0.2031487   0.0737580  -0.3466331
   0.2777064   0.4630843   0.5585860  -1.0633553   0.9639550   0.3212349
   0.2143643  -0.0904839   0.1079070   0.1655859   0.1496972   0.1617637
  -0.6255541  -0.6928671  -0.5530846   0.2672359  -0.0159938  -0.0177248
   0.4611623  -0.4005431   0.3475194  -0.8158524   1.7770243   0.4866890
   0.2178378   0.0858308   0.2182480  -0.1932567  -1.5286989   0.5424227
  -0.1867812   0.1273195  -0.5267221  -0.0828035  -0.1083945  -0.3023597
   0.4401529   0.4761787   0.7817487   0.7045812  -1.6324943  -0.0525962
  -0.2159528   0.3810599  -0.4908147  -1.0571018   0.2051521   0.4902578
   0.2536351   1.8863666   0.5536892  -0.0961957   0.0963683  -0.0483573
   1.8923979  -0.8749882  -0.2660314  -0.5287567   0.4516588  -0.0629841
   0.0766735   0.0559143   0.1202999   0.5696380   0.1761332  -0.0438115
  -0.3469579   0.8809648  -0.3698611  -0.0713273   0.0078771  -0.0374843
   0.7340586   1.1833186  -0.2646464   0.3269024   1.3757875  -1.2926455
   0.4909231  -0.2441484  -0.1829765  -0.0525769   0.5522850   1.8528851
  -0.2452395   1.4832913  -0.6690062  -0.0395001   0.1694151  -0.0675341
   0.1273613  -0.1493093   0.3520705   0.2451893   0.1457089  -0.9552221
   0.4091454  -0.0954226  -0.0638126   0.2255999   0.3691003  -0.1699054
   0.3310513   0.5997410   0.2818959  -0.0157945  -0.2788817  -0.1618046
  -0.1279237  -0.1433501   0.1023244   0.7500814  -0.5568700   1.8534639
   0.0907134  -0.1887421   0.1127588  -0.4009091   0.1284615  -0.0366217
  -1.5442066  -0.1979294   0.9412385   0.3176347   0.0681761  -0.0565004
   0.9159270   0.5418035  -0.0893980  -0.0243635   0.0941929  -0.6022563
   0.1371300   0.0428645   0.1776815   0.2680170   1.0005765   0.1288244
   1.3248552  -0.4149727  -0.5352213   0.0972465  -0.0496125  -0.1543453
  -1.1674803   0.0763190   0.3407567   1.2926435   0.0542999   0.5209293
  -0.1028513   0.0866014  -0.1974230  -0.3440075   1.0294087   0.1664743
   1.0081720  -1.0826106  -0.0155687   0.3348703  -0.2653781  -0.0576360
  -0.4695271   0.0658856  -0.4092416  -0.2451790  -0.1184713   1.3772199
   0.0932372  -0.3945191  -0.4952161  -0.4650612   0.7801294   2.0429680
  -0.2292344   0.1293784   0.5014064  -0.1629031  -0.0395332   0.5051701
  -0.1503924   0.1340906   0.5249832   0.4033032  -1.2727119  -1.6451503
   0.1004748   0.0379338  -0.1385723  -0.4319644   2.0205417  -0.5263426
  -0.2598420  -1.0498064   0.3608464  -0.0129652   0.0951192   0.2347066
  -0.0765748  -0.6518650  -0.6036633  -0.3594443  -0.6091404  -1.1885871
  -0.3377897   0.1172539  -0.2231597   0.2149783  -2.2348650  -0.6246306
   0.2518789   1.1751331   0.8871227  -0.0221414  -0.1491632   0.0368989
   1.1124883  -0.0944937   1.0913388   0.7399997  -0.8853299   0.6787242
  -0.2411097   0.1690325   0.4559669  -0.4547135   0.1479370  -0.1133488
  -0.0154763   0.6086079   0.8249729  -0.1186958  -0.0767877  -0.1184986
  -0.1216309   0.8819937   0.5493942  -0.0070508  -1.4619991   0.3690261
   0.2461042  -0.0631582  -0.1835092   0.3115769   0.4990040  -0.7518777
  -1.1726182  -0.8818153  -0.0943838   0.2802414   0.3629788   0.2217678
  -0.1616862   0.2787827   0.4124404   0.6343169   2.6111624   1.1314415
  -0.2552469  -0.2898389   0.0734995  -0.2064660  -0.4746504   0.8793833
  -0.1491747  -0.8537180   0.1959979  -0.1214244  -0.4325637  -0.2883883
   0.8645478  -1.3099229  -0.3574291  -0.0362559  -1.6018331   0.0582915
  -0.5425270  -0.2472844   0.0719474  -0.0907701  -0.3151074  -0.1505493
  -1.4767771   0.2101532   0.6327984  -0.3573092  -0.1941677  -0.0433178
   0.4504262   0.0205654  -1.2936980   0.0222353  -0.1407493   1.2548981
   0.0896127  -0.1727635  -0.0487819  -0.2303559  -0.0772941  -1.4461135
   0.5581774  -1.0676343   1.5178595   0.2055934   0.2762489   0.0606533
  -0.0712698   0.0742198  -0.3148493  -1.4766920   0.3954905   1.0776776
  -0.0276862  -0.0699124   0.1446635   0.3972725  -0.4742949   0.1911192
   0.1124760  -0.4851924  -0.6975069  -0.2029517  -0.2106456   0.0136704
   0.4245929  -0.1912315  -0.4949983  -2.6603143   0.0387421  -0.1262238
   0.1689673   0.1003308   0.0043206   0.0627664  -0.6477473  -0.6874404
  -0.3253438  -0.7846764  -0.0796006  -0.1438429  -0.1576415   0.0498035
  -0.8605005   0.8674461  -0.9457096   0.0279352  -0.9002991   0.6556070
   0.2812355   0.0336043  -0.3725183   0.4344031  -0.1530622   0.7425603
   1.1489391  -1.1464970  -0.6038258  -0.1835390   0.0334711  -0.1401853
  -0.5867693  -0.4461499  -0.6767749   0.1319379   0.8540234  -1.5299789
   0.1140776   0.1866938  -0.1168632  -2.2055995  -1.3247604  -0.8222858
   0.4121292   0.4825093  -0.3806366   0.0131071  -0.0286375  -0.1998974
  -0.2599569  -0.3439535   0.2071632   0.9324678   0.3246873  -0.0262013
   0.0789839  -0.0469374  -0.0134850  -0.8672224  -0.8888343  -1.2164246
  -1.3476627  -0.0005821  -0.0410231   0.0238639   0.4269645  -0.0515000
  -1.1302931   0.2626846  -0.5983409   0.2363229  -0.4293525  -0.9558377
   0.0707806   0.2833039   0.1951137   0.5809151  -0.5671155  -0.5026588
   0.8603563  -0.3971097   0.2606741   0.1225990  -0.0541003   0.0509641
  -0.1702551  -1.0711627   0.1229363  -0.0023426  -0.5178214  -0.5950806
  -0.0967033  -0.2215033  -0.1293405  -0.4551080   1.4016968   1.3968192
   0.4243990   2.1577759  -1.1203796   0.1688699  -0.0811514   0.0812504
  -0.2013263  -0.4544637   0.1125191  -0.4061486   0.8199987  -0.5438548
   0.2549883  -0.1252108  -0.0735010  -0.7921439   0.2413691  -0.2154478
   0.5239166  -0.9784232   0.1804749   0.2568919   0.5047320   0.0779189
   0.2613739   1.0720025   0.1237272  -0.5383768   0.8827071  -0.2997300
   0.3266845   0.1830897  -0.0924011   1.3370603   0.2359990   0.8433018
   0.1150154   0.5204263  -1.2407922  -0.2073891  -0.0681231  -0.2174017
  -1.0418156  -0.9623709  -0.4985210   0.1696212  -0.1698355  -0.3814051
  -0.0152543   0.2653749  -0.2955410   0.1809412  -0.9452128  -0.4058214
   1.0987725  -0.6802966  -0.2440799  -0.1326330  -0.2345767  -0.0239752
   0.2210114   0.5776765  -0.4721263   1.0852606   0.6920006   0.3586736
   0.2170627  -0.1521116  -0.1047809   0.3454066  -1.1813141   1.3361961
   0.6905899   0.6780705  -0.3610060  -0.0307648   0.1832208  -0.2318904
  -0.4373846  -0.3151973   0.0358093  -0.1154647  -0.1757627   0.4025231
   0.0014271  -0.0074149  -0.1217215   1.5206026  -0.1117334   0.1621220
   2.1470594   0.3246333   0.0652242  -0.0227244   0.0390321  -0.5521675
  -1.0572934   0.2327795   0.6869382   0.0143793  -0.4015288   0.8349655
  -0.1269992   0.0442751   0.0527142   0.3331538   0.4975204   1.5290781
   0.2440799  -0.4250942  -0.6489712  -0.3186344  -0.1477080   0.1098184
   0.1892988  -0.2573518   1.2221305  -0.0798461   0.2940239   1.5706131
   0.4692788  -0.0318739   0.4013209  -0.2753352  -0.6242042  -0.2969724
  -0.5221702  -0.1046968   0.8420039  -0.1201536  -0.3054717   0.0871221
  -0.1330699  -0.3844385  -0.5228977  -0.6636823   0.0900254  -0.5546843
   0.2783885  -0.0378505  -0.1478083   0.6818902  -1.6929045   0.9399959
   0.7030162   1.4929929  -0.5119697   0.5343347  -0.0607233   0.3486556
  -0.8868693   1.0457619  -0.7123474  -0.1905377  -0.6975002  -1.2740480
  -0.0639920  -0.0582748  -0.0131629  -0.0680605   0.6399203  -0.7118737
  -0.7925009  -0.5691131   0.6527613  -0.3993471   0.1121639  -0.1141156
  -0.8970159  -0.7263095  -0.1395665   0.2027001  -0.5140930   0.5060012
  -0.3022642   0.3658880  -0.3486159  -0.4410211  -0.6717599   1.9100918
  -0.1350223   0.8578505   1.0584468  -0.0003633   0.2142621   0.0708512
  -0.7067291   0.0246957  -0.5795994   1.8478987   0.4168364   0.8164593
  -0.0562571  -0.0416856  -0.1384118   1.8541143   0.7095609   1.4597667
   0.3141425  -0.8356769  -1.1254487  -0.2142237  -0.0268576  -0.0378719
   1.7378914  -0.0066498   1.8262621  -1.0667216   0.8195344  -0.9278333
   0.3157963  -0.0738110  -0.0024794   1.5094787   0.4645369   0.0843117
   0.1412272  -1.1263974   0.7576311  -0.0372404   0.1044211  -0.0199479
   0.5011435   0.1387594  -0.5715907   0.7262895   0.5123530  -0.9322128
  -0.1141931   0.0039243   0.0901858   0.2262426  -0.3431407  -0.2313864
   0.0769215   0.0265961  -1.2152793  -0.0284794  -0.1270536   0.0500713
   1.2096193  -0.5059941  -0.4280890   0.0338824   0.5644773  -0.2190090
  -0.1292001  -0.0246701  -0.1006550  -0.1109316  -0.5391729  -0.8697956
   0.1823190   0.2686948   0.1708698   0.1424278  -0.0706995   0.2247988
  -0.7989530  -0.8257346  -0.4589101   0.2459599  -0.4971624   1.2869956
   0.1548740   0.2194454   0.0844469   0.5588157   1.1747425   1.0431099
   0.3701251   0.1116380  -0.5296831  -0.0906607   0.0615216   0.1330309
  -0.4818887   1.4727222  -0.3405661   0.2083179   0.4304115  -1.2910105
   0.1522978   0.0131942   0.3257509   0.5821809   0.4525704   0.6670480
  -0.5650153  -0.7725456  -1.9092042  -0.1950038  -0.1444874  -0.0485623
  -0.0481447   0.8542075  -0.9822155  -0.1502291   0.4170139   0.5607055
   0.2984043  -0.3206883  -0.0520923  -0.1162460   0.3110735   2.0388134
   0.9272382  -0.6421427   0.5407813  -0.1970236  -0.1668323   0.2568842
  -1.3761377  -0.8236749   0.7973713   0.3842871  -1.5047688  -0.6132638
   0.1672819   0.1853981  -0.2283192  -0.2262415  -1.0359908  -1.2987583
  -0.2284224  -0.5387682   0.2405777   0.1875764  -0.1540286  -0.1113703
  -0.8694699  -0.0424118  -1.0487134  -0.2158525   0.5237993   0.4201503
  -0.0558236  -0.2547686   0.0536750   0.2299211   1.2114803  -0.9205270
  -0.2639648  -0.5418866   0.0050318  -0.2445949  -0.0609415   0.1188447
  -0.5766930   0.7259853   0.9885948  -0.4669389  -0.7729434  -0.1729827
   0.0958498  -0.0935304   0.3659748  -1.0592518  -0.8763618  -0.0428190
  -0.0454740   0.7728564   0.4459860   0.0538210  -0.0415125  -0.5098999
   0.2611192   1.7707207  -0.5557145   0.6174233  -1.6771127   0.8771468
  -0.0069722  -0.1280955  -0.0737552  -1.7867281   0.2462460  -0.1653331
   0.3956119   1.2549481   0.3593882  -0.1146069   0.0546751   0.0963827
   0.6524507   0.7093439   0.7088817   0.4522400   0.4455523  -0.0228449
  -0.2183940   0.3439462  -0.0194699  -0.2302344   1.1737945   0.0666629
  -0.3341578  -1.0607978  -0.0732612   0.0401794   0.3456305  -0.0608981
   0.0447340  -0.5688025   0.3850009  -0.2257534   0.8574091   1.4850390
  -0.1472403   0.0971651   0.1040339   0.0528200  -0.3335967   1.2103660
  -0.2036140   0.0361992  -0.2772473  -0.3890519  -0.0608144  -0.0630241
   0.2297341   0.5170581   0.5452151   0.7567642  -1.0032609   0.2533517
  -0.1969409  -0.0727499   0.4193679  -0.0540512   0.3414308   0.4304235
  -0.0656441  -0.0832825  -0.7167060   0.0149649  -0.0621707   0.1594401
  -1.2130969  -1.0612032   0.1437181  -0.8774731  -0.4432473  -1.1030828
   0.0322408  -0.1775248   0.2771880   0.2647419  -0.6624559   0.4454826
   0.1965163   1.0116309   0.0936656  -0.0059076   0.0900825  -0.0816846
   0.2488826  -0.1794322   0.4598233   1.2682202  -1.3409433  -0.1257941
   0.0417524  -0.0235133  -0.5029451  -1.1808072  -0.8947523  -0.3329842
  -1.1189193  -1.1728399   1.0897602   0.5654126   0.1536624   0.1584139
   0.9259127   0.7052289   0.2361902  -0.1912303  -0.3591917   0.5641485
  -0.0690503   0.1660488  -0.6362013  -0.3760578  -0.7370064   0.2558496
   1.0475502  -0.4649169   0.7492737  -0.4235298  -0.1502266   0.2797378
  -0.7950960   0.2950782  -0.4535300   1.4187348   0.3085945   0.1620223
  -0.0305823  -0.2659585   0.3351527   1.1624880   0.5846893   1.7625202
   0.9900210   0.2419964   0.2709262  -0.1951346  -0.0258783  -0.1303223
   1.4885285   0.1758514   0.4086873   0.3568592  -0.0523465  -0.7402501
   0.0174310   0.4155482  -0.1242801   0.7973485   0.5923726  -1.0230159
   1.8519078   0.4874742   0.0674773  -0.3229911  -0.3957336   0.1837628
  -0.3159972   0.5474995  -2.1763244  -0.2689923  -0.5486301  -0.7470328
  -0.1528585  -0.0209785  -0.1169264  -0.2708161   0.7018028   0.3115560
  -0.4203761  -0.2769745  -1.4416455  -0.0080258  -0.1066737  -0.3646027
  -0.9191661   0.2917902   2.0779393  -0.5890687  -0.5714751   0.8017311
  -0.1728600   0.3784347   0.2311104  -0.6512420   1.6053162   0.0196019
  -0.2851542  -1.3951677   1.1826895   0.1897765  -0.0323483   0.1112252
  -0.0666970  -0.8032981   0.3331410  -1.5560716  -0.5761918   0.8187560
   0.3372317  -0.1307084   0.0335629  -0.0768711  -0.2146843  -0.9714797
   0.4324645  -0.2842058   0.6346583   0.4485124   0.1126404   0.1077389
   0.0609181   1.9461813  -1.3440436  -0.4996556  -1.1556617   2.4159806
   0.0151427  -0.2135619   0.2193636  -0.0412380  -0.6702863   0.5785950
   0.2436043  -0.3855891  -0.7343885   0.3525798  -0.3592416  -0.1987932
  -0.5672224  -0.9081756   0.8659814  -0.5552102  -0.0781178  -0.8255315
  -0.3003719   0.0056002   0.1780784   0.4721324   0.5980533   2.5421586
  -0.4080988   1.5677652  -0.6379740  -0.0138345   0.2275507  -0.3317153
  -0.9763538  -0.2113425  -1.5187132   0.2754647  -0.3143277   0.1389301
  -0.1441118   0.2506789  -0.0957426   0.0390945  -0.3950456   0.8775860
  -0.4788087  -0.3730450  -0.2247889   0.0592148  -0.2066798  -0.0308479
  -0.5847166  -0.7079473  -1.0792887  -0.3443765   1.8313850   0.3184730
  -0.2148843   0.1595181   0.2700392  -0.7455857  -1.8434808  -0.4250404
   0.1787320   0.7827959   0.0558270   0.1489963   0.4814820  -0.0376623
   0.5987010   2.3322935   1.1626077  -0.3772008   0.3372294  -0.6192529
  -0.1634290  -0.0613429  -0.1930279  -1.1269480   0.7974200   0.8484153
  -2.2240822   0.7860003   0.4359460  -0.3062051  -0.2239439  -0.0012781
   0.6614004  -0.0862336   0.2194347   0.1417051   1.3615801  -1.3886542
  -0.4030941   0.3051679  -0.0122908   1.4298171   0.8513417   0.6689507
   0.5447227  -0.1402052  -2.3043423  -0.1243627   0.1756773  -0.1124751
  -0.8874826  -0.6003368  -0.8211095  -0.5458975   0.6519641   1.0497789
  -0.1881452   0.2377287   0.1522486  -0.6583276   1.3487115  -0.2217217
  -0.8218741   0.9075751  -0.9412397  -0.0555637  -0.0051747  -0.1593755
  -0.3331530  -0.8244934  -0.8240370  -0.4364761   0.5032732   1.4977864
  -0.0986961   0.1063593   0.1299675  -0.1607628   0.2016393  -1.7866950
   0.4563522   0.2769757   1.3088061   0.0098703   0.0003424   0.0397927
   1.2947401  -0.5842311  -0.4941584   0.1044193  -0.3423838   0.7077256
  -0.2182695  -0.4913712   0.1592287   0.5545051   0.7949688  -0.3196698
   1.2131602   0.5213656   0.9233236  -0.1483290  -0.2823023  -0.2048239
  -0.5479962   0.3102567  -0.1960965   2.2142506   0.4510945   0.4550427
  -0.0518960  -0.0540552   0.0206408   0.2462897   0.9664515   1.6443112
  -0.9124975  -0.2133280  -0.4916350  -0.0549479  -0.1236689  -0.0503258
  -0.2292882  -1.3638170   0.8549834   0.2084676  -0.3743421  -0.0453300
  -0.1453983  -0.4261100   0.1632881  -0.5605088   1.3414359  -0.5679162
   1.2053769   1.2509558  -0.6196433   0.3673954   0.0098334  -0.1203009
   0.1011921  -0.2424159  -0.1566687   0.3084777   0.0569024  -0.7363868
   0.0147433   0.0864685  -0.2968897   0.1170056  -0.4739962   0.5455555
   0.5380918   0.7342401  -0.1490840  -0.1322069   0.2090946  -0.0751988
   1.1166337   2.0499957   0.3568275  -0.1881428   1.1789981  -1.3093961
   0.0771111   0.0993469   0.0079670  -0.1736471   1.1375657  -0.9408056
  -0.4628791   0.2955714   1.0852040  -0.0841020   0.1044390  -0.1551964
  -0.3213212   0.3276198   0.2254342   0.9958028   1.0716316   0.5059664
   0.3203829   0.0307817   0.0794540  -2.0914133   0.1177161   0.9976577
   1.0234019   0.3565063  -1.2899631  -0.0066486   0.1315210   0.1184106
  -0.0672949  -0.1746744  -0.2057478  -0.1055659   0.8324016   1.0412000
   0.1871011   0.2120748   0.1688775  -0.2035674  -0.1865454  -0.4224249
  -0.7504244  -0.6845350  -0.1668053  -0.2235687   0.2311952  -0.1476194
   0.3886066   0.8999138   0.0467414  -1.3853947   1.2071478   0.8816428
  -0.0625928  -0.0701025   0.3517947   0.0453688  -1.8434303   0.0053321
   0.9288965  -0.4651863   0.8393623  -0.1181930   0.2310779   0.2679577
  -1.3373142   0.5818152  -0.3814434   0.7794853   0.2812538   0.1214032
   0.0223789   0.3221667   0.1216669   1.3660055   0.2190015  -2.0478404
   1.0897076   0.5152798   0.5320476   0.0940028  -0.2058570   0.0549317
   0.6785530  -0.1012624  -0.0395884   0.8714261  -0.8930645  -0.7043701
   0.4180261   0.2229359  -0.1733144  -0.0763097  -1.8970346   1.1306796
  -0.4229284   0.8348947  -0.0637960  -0.2370235   0.0034252   0.4447781
  -0.4453239  -0.5733473   0.5714040  -0.8870953   0.2395113   0.7173181
   0.1203588   0.0275559   0.1084040  -1.3352587   1.3254327   0.1385632
   0.3223431   0.0873819  -0.0430767   0.3308306  -0.0390612  -0.0480372
   0.8488054   1.2578945   0.0752066  -0.6124961   1.4341033   0.2745154
   0.0261886   0.0187976  -0.2059072  -0.8382710  -0.3663997  -0.0979583
   0.5455068   0.3657742  -1.2445989  -0.3025222  -0.1277367  -0.4821644
   0.7474714  -0.5208624   1.0583253   0.6112778  -0.3528009  -0.0256964
   0.4424238   0.1687979  -0.1317593  -0.0822907   0.2885712   0.6316901
  -0.1755271   0.0212990   0.3254620  -0.1014371  -0.0580567  -0.0844546
  -0.9569688   0.8163055  -0.5509806  -0.8308619  -0.8088681   0.1521418
   0.1308355  -0.1648451  -0.0407949   1.6511290   0.5947092   0.4471403
   1.2605572   0.2519114   0.4221254   0.4401824   0.1659148  -0.0711639
  -0.8895224  -1.3332106  -0.6550181   0.3009719   0.8039536   0.0470871
   0.2656144   0.1653779   0.2597791   1.1598440   0.0189406  -1.0700959
   0.7939508  -0.4656111   0.6859741  -0.2103105  -0.1471491   0.2501013
   0.6052650   1.6477115  -1.1465768  -0.1939257  -1.2872987   0.0128757
   0.0933878  -0.0036818  -0.1731056  -0.4085075  -1.1424383   1.0264120
   1.5550271  -0.0467326   0.2820476   0.0498742   0.0499179   0.3700598
   0.8776255   0.8867863  -1.4646523  -0.8380545  -0.9348836   0.4039584
   0.2131192  -0.3005163   0.0569059  -0.7602865   0.4838506   0.5621563
  -0.6362569   1.2544357  -0.8788174   0.0904090  -0.2919692   0.1942092
  -0.4633428   0.6785955   0.3238696   0.6662789  -0.6465266   0.3267495
   0.0536821  -0.2858593   0.2665477  -0.6648446  -0.3937884  -1.2145141
  -0.6249779   0.2422893   1.0061936   0.1791916  -0.2284502   0.1481599
  -0.7034798  -0.1280636   0.1941194   0.0138301   1.0546077   0.2406398
   0.4567178   0.1058235   0.4359565   0.5275409  -0.0753940  -0.9359489
   0.1616119   0.1216873   0.5736364  -0.3672247   0.2042044   0.1033256
   0.3575908   0.9455233   1.2630798   0.2856612  -0.2004444  -0.0768099
  -0.0253178   0.1908777  -0.2815349   0.4166208  -0.5831029   0.6165473
   0.0738138   0.5981455  -0.4679401  -0.1616036   0.2111768  -0.0298224
   0.5273768  -0.0060323   0.4692914  -1.0958521   0.3145768  -0.1692846
  -0.0982625   0.0518815  -0.2165671   0.0365149   0.0021550   0.2591263
  -0.6549670  -0.4343389  -0.5084931   0.3129300   0.0919628  -0.0548262
   0.1713331   0.4631925  -1.0761720  -0.2975225  -0.1347974   0.0245080
  -0.2121044  -0.0798240  -0.3934676  -0.0725548  -0.3863174   0.1417330
   0.4432620  -0.7500168   0.8481756  -0.1109074   0.0674764  -0.1465115
   0.8095382   1.1428685  -1.2987010  -0.7021611  -0.2043093   0.6402080
  -0.3310865   0.0260307  -0.2167525   0.6316100  -0.9059329   0.4006291
   0.3384281  -0.4931192   0.7939222   0.0026335   0.2622389   0.0951822
   0.1152117  -0.2103275   0.8823106  -0.5181884  -0.2256945   0.2615266
   0.1305799   0.1416101   0.2080648   0.2897056   0.2792003  -0.8642153
   0.6686381   0.4317596  -1.8329352   0.0132387  -0.1586137   0.4157478
  -2.2591722  -0.6605403  -0.4577638  -0.1604644  -0.1294901  -1.2465489
   0.1035487  -0.0392441  -0.2594446   0.5931513   0.0039040   0.0194286
   0.1104763  -0.8746496   0.0374214  -0.3338551  -0.1067212  -0.0632090
  -0.7992751  -0.2194966   0.2346658  -0.1591342  -0.5086970   0.0697885
  -0.1196175   0.0714717   0.2509485   0.1091145  -1.5159283  -0.3658018
  -0.9332044   0.4404880   0.2656529   0.0665554   0.0078126  -0.3942180
  -0.2405307   0.6073458  -0.9923761  -1.0103344   0.5014743   0.8877943
   0.0910918   0.1711263   0.0589409   0.6741884  -0.4050747  -0.4504316
   1.2699986  -1.8250588  -0.2630524  -0.1005768  -0.1093837  -0.1980191
   0.3108231   0.3738512  -0.5896972   0.4968542   0.0476282  -0.4212829
   0.1979474  -0.0362488  -0.2018838  -0.2659859  -0.8342950   0.5894642
  -0.2863054  -0.4396006  -0.0879444  -0.0348511   0.0317054  -0.0109772
  -1.7846792  -0.9972190  -1.4083606   0.5069628   1.9911535  -0.2875217
   0.0110959  -0.1494131  -0.0161046   0.1118387  -0.9464113   0.6551901
   0.5381939  -0.8873473   0.4308798   0.0219098  -0.1525255  -0.3537913
  -0.4333671   1.2058848   0.2212773  -0.7091746  -1.3534417   0.0321436
  -0.0957465  -0.1994898   0.1680251  -0.7396413  -0.1848486   1.8368860
   0.2685632   0.3264731  -0.5621385   0.1967873  -0.0866490  -0.0062419
   0.4717980  -0.3823202   0.8231269  -0.7306914  -1.1100646  -1.1933410
  -0.2428639   0.0800937   0.1392333   0.4775883  -0.1988626  -0.2452730
   0.2371982   0.4674571  -0.5139377  -0.2679372   0.0168767   0.0257194
   0.8159739  -0.6331597  -0.5376371   0.0477624  -0.7748289   0.0803586
   0.0175319  -0.0997579  -0.0564547   0.3719443  -1.4400938   0.4916078
   0.1496247   0.3617497  -0.0152223  -0.0077090  -0.1302022  -0.5258060
  -0.9686546   0.4803353   1.8977649   0.4951035  -0.4253386  -0.2403855
  -0.0302644  -0.0821209  -0.2136739  -0.7541324  -1.2916760   0.8344362
   0.2496425  -0.0787963  -0.3392807  -0.3676010  -0.2499492  -0.0447220
   0.1055751   1.0376790   0.6360314   0.5135947   1.2032866   0.8163881
   0.3581318   0.1106517  -0.1074494  -1.1766489  -0.6128125  -0.2795834
   0.0721224   0.5815322  -1.3722177   0.3752192  -0.0587960  -0.1141987
   1.3422539  -0.3833422   0.2365399   0.2788364   0.4174572   0.1475905
   0.0743690   0.1655372   0.3427131   0.8311800   0.0393634  -0.2852605
  -1.2675205   0.0074408  -0.4332540  -0.1279909  -0.1325212  -0.4957426
  -0.7243354   0.7507276  -0.4732176  -0.1912813   0.2604794   0.3093118
   0.0392483   0.2502184   0.0833573   1.2779440  -0.0933376  -0.5075412
  -0.3383966  -0.2361909  -0.1163103   0.0754350   0.1645910   0.1139007
  -0.7647735  -0.7935790  -1.4270797   0.5507771  -0.2870640  -0.0626744
   0.0439260   0.2211161   0.1586483  -0.6510275  -0.8645249  -0.7920548
  -0.7316751  -0.8754118   0.5007867  -0.0738261   0.1919018   0.1290723
  -0.5468293  -1.1243894   0.7726676  -0.6213693   1.0719852   0.1918484
   0.0041540   0.0640703   0.1042794   0.5170240   1.5243460  -0.1845764
   0.7552667  -0.2395550  -0.1764210   0.3235068   0.1526855  -0.0455042
  -1.0947458  -0.7759183  -1.2091992  -1.1699665  -0.9660748  -0.3187681
   0.1061133  -0.1530809   0.0439758   0.6724927   1.3581680   1.2049720
  -0.7106543  -0.4311014  -0.3806900  -0.0499560  -0.1419850   0.0304432
  -0.1882089  -1.2423221   0.7762496   0.0638946   1.2216636   0.0131874
  -0.0216257  -0.1811019  -0.4184255   0.4880632   0.3008217   0.4659955
  -0.4955592   1.3486366   0.0450974   0.1902847  -0.2011086  -0.1320536
  -0.0295134   1.4254678  -0.0474533   0.1338878   0.3216833  -1.3758353
  -0.1813059   0.2697579   0.1000754  -1.0451819  -0.6271648   0.2708870
   0.2508145   1.4569906  -0.5480418   0.2298806  -0.1142165  -0.1777466
   1.7590663  -0.2130586  -0.0013964  -0.9492689   0.1068769   0.5194378
   0.0232562   0.2108110  -0.1815554   0.0381478  -0.5232568   0.1666170
  -0.5217633  -0.0592652  -0.6702546  -0.3194081   0.0752745  -0.2211772
  -0.2869566  -0.1746387   0.2319754  -1.5953742  -0.7225397   0.0246733
   0.1320179  -0.2948110  -0.1053484  -0.7467338  -0.3209400   0.4808208
  -1.2896624  -1.2530292   0.3515390   0.1665050  -0.3756321  -0.0782541
   0.0627418  -0.2041004  -0.1432852  -0.1893413  -0.1932340   0.1144338
  -0.3453510   0.0057541  -0.0560689   0.4172141   0.3276219  -0.6910657
  -0.3835144   0.0874009   0.7758353   0.4346956   0.0601723  -0.2286516
   1.2356753  -0.4011418  -0.8940327  -0.3615471  -0.9919634  -0.2280699
   0.0860808   0.2041127   0.1991144   1.5956664  -1.3321993  -0.2458130
   0.9386694   1.3492421  -0.6502109   0.2353991   0.0219844   0.4355263
  -0.3537203  -0.6270414   0.4468244   0.9418376   0.7093473   0.7992541
  -0.2015194   0.0554219   0.3332674   0.4268271  -0.0893971   0.0284415
   0.5824606  -0.4425244   0.9039789   0.0039185   0.2741492  -0.0374887
  -0.4117337   0.2312912  -0.5172617   0.5723357  -0.0716148  -0.8158512
  -0.0171332   0.0800672  -0.0386559  -0.8476462   0.5936192  -0.2069592
   0.1817518  -1.5945139   0.2061230  -0.0762568  -0.1334217   0.2313253
   0.0538173   0.4073963   0.9395718   0.7749658   1.1676861  -0.3769379
  -0.1011835  -0.0868134  -0.1017199   1.3317342  -0.1046993   0.7132087
  -0.4669533   0.1934568  -1.2166182   0.1738698   0.0892699   0.1893942
  -0.6753035  -0.2321561  -0.7703256  -0.3790826  -0.6619539  -0.9884035
  -0.2967813  -0.0681262   0.0099511  -0.8461809   0.8330821  -0.2256025
  -0.9504982   0.1993318  -0.2625790   0.2121205  -0.0867653  -0.2080356
  -1.3589373  -1.1240861   0.7291643  -1.0335262  -0.4505357  -1.9269540
   0.1017381   0.0267142   0.0160050   0.7362038   2.3009088  -0.6021896
   0.6238283  -1.2177203  -1.3339450   0.0337451   0.1731433   0.1878132
  -0.6626154   0.0815469   0.1552081   0.6267007  -0.0847057   0.1035163
   0.1274678  -0.1030621   0.0550547  -0.1308538   0.9571347  -0.8486822
   0.1963754  -0.5384375   0.8563049  -0.0147825  -0.4272120  -0.4609080
   0.1568433   0.3184986  -0.6426182  -0.2342895   1.0741700  -0.8484177
  -0.0984038  -0.3661125  -0.3612612  -0.3317507   1.4231589  -0.1607286
   1.5150754   1.3732657   0.4894571   0.2944536   0.1022414  -0.0355603
  -0.6264284   1.8975204   0.0880037  -1.6315434   1.0262221   0.6416965
  -0.0798459  -0.1895025   0.1671718   1.3423331  -0.0224617   0.3362250
  -0.5075040  -0.6394278  -0.9369999  -0.1079823  -0.4278931   0.0063814
   0.8654836   0.1611097  -0.0277695   0.0663597  -2.8061039  -0.9394518
  -0.0565165  -0.0616987  -0.1645722  -1.3177565  -1.9466223   1.7312438
   0.2799081   0.4378223  -0.6950554   0.0135835   0.4815405   0.1874184
  -0.3197608  -0.3570786  -0.8566127   0.0814904   0.0436787  -0.4444187
   0.3672459   0.0841052  -0.3262976  -1.0382375   1.4157236   1.0936089
  -0.7789718   0.2481823  -0.0834101   0.1318049   0.1716872  -0.1867243
  -0.8547716  -0.5290821   0.3172850  -1.2025751  -0.3212863  -0.7553343
  -0.0154338   0.0274762   0.0969506   0.1714409  -0.2243410  -0.1672738
  -0.4604898   0.3428941  -1.7500880  -0.3004426  -0.4382885   0.0623592
  -1.1504954  -0.2758824  -0.7769743  -0.2218713   0.4964928   0.5864843
   0.2019748  -0.0888155  -0.0052524   0.3838288  -2.3593304  -1.1962104
   1.3643434   0.0084293  -0.5035716   0.2424695   0.0656539  -0.0750377
  -0.3905476   0.2941348   0.0989537  -1.7709428  -0.9355931   0.2880318
  -0.1106483  -0.0031121   0.0517184  -1.2693099   0.1002401   0.5759938
  -1.0087934  -2.5026736  -1.1178671   0.1377849   0.1533880  -0.1742172
  -0.2848747   0.0864446  -0.0384273  -0.6849688   0.3776340   0.6272371
   0.0121415   0.3623157   0.1642680   0.3474589   0.5313488   0.2331647
  -0.1983735   1.0424629  -1.1259917  -0.1293289  -0.0128797   0.2393272
   0.4505647  -0.4669729   0.6179724   0.2379485   0.5207575  -0.6633412
   0.0768936   0.0192163  -0.0484696  -0.2544806  -0.2545023   0.5765896
   0.3268736   0.6087095   0.1097365  -0.1904747   0.0115203   0.3132100
   0.0226531   1.5391608   0.1597706   0.4972590  -0.0248057  -0.1894390
   0.0006301   0.3535303   0.3501199  -0.8948160   0.4871480   0.3055739
   0.9722573   0.1620209  -0.0901799  -0.2384354   0.1050533   0.0696155
  -1.1069632  -0.0297031   0.7279496  -0.6654330   0.5350296   0.1546491
  -0.0133717   0.0531161   0.1597987   1.0982047   0.9453570  -0.7120029
  -0.0782314  -2.2204020  -0.3930213   0.1135214  -0.0132349  -0.3071664
  -0.2671758   0.8915073   0.4328843  -0.3606891   0.3121671   0.6257777
   0.4701007  -0.2234156  -0.2471666  -0.4729379  -1.4626999   0.9638374
   0.8004797   0.9485683  -0.0870378   0.0710668   0.3236794   0.0724228
  -0.1030862  -0.9675131  -0.1829322   1.9718714  -0.0699229  -1.1319261
   0.1498050   0.1477609  -0.1375723  -0.1078639   0.0121321   0.0649738
  -0.5322472   0.5541844  -0.3998996  -0.0824361  -0.2992209  -0.2388792
   1.2150162   0.2761979   0.1970112   0.6916317   0.4343754   0.2967963
   0.2365787   0.1473375   0.0951679  -0.0594143  -0.1076837   0.7659566
   1.1429167   0.3461967   0.6285633  -0.0866507   0.1190961  -0.0854346
   0.4700706   0.6555427  -0.5411627  -0.0889732  -0.1587079   0.5989469
   0.1061025  -0.2638476  -0.0347462  -0.7850446   1.0520235   0.1942153
  -0.4451489   0.4179603   0.2635920   0.1014274  -0.1774787  -0.0988968
  -0.9656808  -0.9243536   0.1279403   0.3344406  -0.2006945  -0.7904278
  -0.1447581   0.2524738   0.5699688   1.1556194   0.0662120   0.7759750
  -1.0012578   1.1729261  -1.0224899  -0.0549098  -0.2871529  -0.0174547
   1.3976175   1.5797229  -1.4670720  -0.2037535   2.0412352   0.6257387
  -0.1025400  -0.1178180   0.1651181  -0.3085455   0.6773522  -0.0690974
  -0.5371839  -0.1303599   0.1472152   0.1735807  -0.2923468  -0.1706394
  -0.6727217  -0.1784752  -1.1960672   0.1647482  -0.4400211   0.7828661
   0.1234187  -0.1624752  -0.0530141   0.1599490   0.4938768  -1.1753879
  -2.4640865  -0.4280144   0.7659311  -0.1127902  -0.2119819  -0.2627947
  -0.2472343  -0.1373120  -0.5634865  -0.6373625  -0.4087739  -1.9436219
  -0.0048766   0.0362668  -0.2502692   0.7753683   0.2735865   0.0661673
  -0.5065636   0.3141160  -0.4279053  -0.0715275  -0.3927234   0.1218938
   1.0156260  -1.0421908  -0.0698981  -1.4376221  -0.9517476  -0.9684601
  -0.4619572  -0.2938198  -0.2842700  -0.1251264  -0.2796027  -0.4027182
  -1.1215965  -1.1382143  -0.3659217   0.2538954   0.4180281   0.1528195
   0.8485067   0.4426438   1.1631304  -0.3244572  -0.1634133   0.5893292
   0.1407328  -0.1437826  -0.1611881  -2.4080484   2.1680369   0.9047671
   2.2429800   1.0484931   0.2077055  -0.0658053   0.0189353   0.2444073
   0.6003154   0.4967398   0.1621834  -0.4761309   0.0885181  -0.3542762
  -0.1984238  -0.0982090   0.1305028  -0.4292122   0.2270327   0.1757025
   0.3901760  -0.9786600  -0.4082509  -0.2503771   0.1470847   0.1572732
   0.7191276  -0.2905530   0.3680363   0.3658776   0.6873735   0.3116487
   0.1516504   0.1749201  -0.2511792   1.3095982  -0.9267284   0.2456648
   0.2330375   0.9472005  -0.5880442   0.0991744   0.1932578   0.1786589
   0.8635637  -0.7154062   0.0578061  -0.8265194  -0.1074541   0.5374135
   0.1281569   0.0862046   0.0356866   1.9354253   0.2829961  -0.7334481
   0.6876770   0.2611980   0.3783343   0.0237043  -0.3656914  -0.3994445
   2.3944559  -0.2047914  -0.4728976  -0.4512998  -0.2229539  -0.3128112
   0.3470809  -0.2788437   0.1362637   0.4689530   0.4841608   0.3734650
  -0.8327165   0.7778290   0.3053784   0.0175376  -0.1691449   0.3778996
   0.1545407   0.2759369   0.6844926  -0.7619182   0.5995995   0.8287251
  -0.3220793  -0.1010320   0.1709922  -2.2395806  -0.3923567   0.1688663
   0.5969458  -1.4135772   0.2346230  -0.2334155   0.0815579  -0.0394747
  -0.1539960  -0.4758352  -0.4853004   0.4659359   0.1587969   0.8048208
   0.2406281   0.1102555  -0.0146212  -0.9582000   0.3778612  -0.7720551
   0.4270157  -2.2872145  -0.3651206  -0.2048235  -0.0826552  -0.4064887
   0.5549539   0.1016526   0.8136690  -1.0829191  -0.1847423   0.6427075
  -0.3428068  -0.0165144  -0.2926117  -1.5224677   0.3637145  -1.1823276
  -0.0168732  -0.2544591  -1.2206444   0.1302410   0.3043037  -0.3929348
  -1.0822419  -0.2472595   0.1373878  -1.4859207   1.3464515  -0.1408156
   0.2848865   0.4632119   0.0811194   0.9994164  -0.0842317   1.8217796
  -0.0989471   0.4874205   0.5123886   0.2109507  -0.3023198   0.1309452
   1.3495313   0.1524273  -0.0251421  -0.3234458   0.2584219   0.9397424
  -0.1368150  -0.0902584  -0.1464261   1.6998438  -0.0254566   0.3455769
  -0.5187199   0.7334643   0.6721911   0.2321673   0.0207746  -0.3387568
  -0.5497770  -1.2778574  -0.8646861   1.2360231   0.2540891   0.5635669
   0.0900157  -0.1161411   0.0439291  -1.9239119   0.1774997  -1.2558596
  -0.6107330  -0.1318242  -1.0325249  -0.1684657  -0.0292461  -0.3064088
   0.8006045  -0.5885348  -0.8856081   0.5429937   0.4251322   1.3354698
  -0.0243549   0.0620742   0.1194551   0.9368926  -0.5580294  -0.5513055
   0.0861605   1.1046739  -0.6270125   0.0166523  -0.2350244  -0.1454221
   0.7105538   0.4575298  -1.9925303  -0.4463927  -0.4316628  -1.1822990
   0.0749000  -0.2465159   0.0294300  -0.3650975   0.9305612  -0.3552741
   1.5349605   1.1738213  -0.2595758  -0.0046667  -0.0823822   0.1028119
   0.5079469   0.2002814  -0.4752320  -1.0862284   1.1051381   0.1494835
  -0.1917469   0.0990881   0.0819064  -0.5336714   0.7970615  -0.0325801
  -0.3625915   0.9571363   1.5741907   0.3146781  -0.0386060   0.1402528
  -1.0652884   0.6495433  -1.3313237   0.1524117   0.3068521   0.2149896
   0.1756799  -0.1221995  -0.0223371  -0.6199033  -0.3301955  -0.0659634
   1.2515600   0.4559149   1.4048451  -0.0876115  -0.0062460   0.0365975
  -1.1964800   0.3255221   0.4824442   1.2016350  -0.1507820   1.6743695
  -0.0673166   0.0584926   0.1152137   1.1141640   0.6147868   1.7290303
  -0.8289643  -0.1960269   0.0520618  -0.0755282  -0.0055653   0.3419516
  -0.2178689   0.0808260  -1.2562771   0.6551734  -0.4387226  -1.2943193
   0.2976967   0.3134803   0.1986386  -0.7112129   0.1792829  -0.6525877
  -1.3259146  -0.4425586   0.1929376   0.0581336  -0.0372201  -0.0513802
  -0.4608073   0.4493141  -0.8911985   0.4373025   0.1156209   0.5975670
   0.2312996  -0.0609997  -0.1237934  -0.2367823  -0.8408407  -2.1199903
  -0.6268656   0.5045626  -1.0092961   0.5363591  -0.1297820   0.0430241
  -0.0836010  -1.0241294  -0.1899868  -1.2219689  -0.4032989   0.5133463
  -0.1530509  -0.1357682  -0.0101034  -1.2097726  -1.4451615  -0.6171012
  -0.0596181  -0.0402983   1.2555426   0.0105681   0.0271106   0.0763181
  -0.4582777   0.2729200  -0.9793630  -1.0695763   0.5130993   0.7524594
  -0.1654097   0.1998145  -0.0846927   0.9588308   0.3269598  -0.4356929
  -0.1966700  -0.6283678   0.7806376  -0.1425813   0.0944105   0.0106854
   0.4072085   0.3998097   0.6708050   0.4392786   1.7538371  -0.9334880
  -0.2812053  -0.1433703  -0.0279869  -0.2077441  -1.0625128  -0.0344517
   0.4945187   1.6498479  -0.2238489   0.2980806  -0.1873446   0.1546784
  -0.2907441  -1.2580824   0.5586749   0.2906092   0.0736653   0.9058229
   0.0597628  -0.1263987  -0.1547945  -0.1165064   0.2488291  -0.8034621
  -0.8391432  -0.3601574   0.3055701   0.2136026   0.1421860  -0.3008806
   0.1885376   0.1579056   1.3056992  -0.4268312   0.1312166  -0.0245659
  -0.4036560   0.0985601   0.1262602   0.8743331  -0.3734258  -1.7186325
   1.3275256   0.2395028   1.1440816  -0.0959822   0.3708470  -0.4171839
   0.2026975   1.9883965   0.2983406   0.8121692   0.5428902  -0.5301095
  -0.0734820   0.3027776   0.1427920   0.3287983  -1.4230731   0.4679359
   0.1417491   0.7956032   0.2332624   0.0064912   0.3201684  -0.1757625
  -1.6383328  -1.6739976   0.7900957  -0.2390275  -1.1415308   0.2366040
   0.0098598  -0.0155120   0.1709964  -0.2274645  -0.1479448  -0.1769121
   0.7989750  -0.0401078  -0.1817184  -0.3666436  -0.0420209  -0.2455283
  -0.7481198   0.3387944  -0.7861558   0.2406512  -0.8835090  -0.8696806
   0.0699442  -0.3337733   0.6045183   0.8559995  -0.8650674   0.1211690
   0.1819396   0.3499296  -1.2998943   0.2365644   0.1959896  -0.1672104
   0.7352121  -1.2398428   0.6300257  -0.1169585  -0.1627912   0.0923225
   0.1083732   0.2691961   0.1394934   0.4493456  -1.0908474   1.2595708
   0.5447460   1.6594493  -0.0442396  -0.1515007   0.2687854  -0.0935344
  -0.4463519  -0.9013723   0.5971482  -0.5457126   0.1034626   0.3214812
  -0.2195723   0.0435854  -0.2255370   0.1333627  -0.1316103  -1.5764011
   0.3316360   1.0286545  -0.8254838  -0.1697125  -0.1777638  -0.2853565
   0.4349716   0.2765454  -0.4768509  -0.6517026   0.6209645  -0.5125161
  -0.3351141  -0.2220152   0.1160044  -0.7714102  -0.0103944   0.7463949
  -0.5188228  -0.8931575  -0.3439078  -0.2716527  -0.1852853   0.1953893
  -0.0951482   0.5845940  -1.2537994  -0.2960558  -0.5997064  -0.3602605
  -0.0559174   0.0711947   0.0366441  -1.1578281   0.0365532   0.3556477
  -0.4360192   0.4289275   0.6825252   0.2413752  -0.0856208   0.6147412
   0.1358025  -0.1427944   0.2330250   0.3113832  -0.0890009   0.2732582
  -0.1452125   0.0945800  -0.1165639   0.2673757  -0.4083011  -1.9373968
  -1.3244150  -1.4110628   0.2464432  -0.0931185  -0.2194968   0.0303687
   0.2351917   1.4742785   0.2674539  -0.5878181  -0.3592969  -1.2149867
   0.2567784   0.1678811  -0.0224314  -1.4425014   0.6088513  -0.7803813
   0.0594531  -1.1217558  -0.7128624   0.1992882  -0.0034808   0.0199026
  -0.7644902   0.9089277  -1.5042666  -0.8293781   0.3340480   0.1180930
  -0.3341063  -0.2598818  -0.0474390   0.1446986  -1.5820955   0.6796964
  -0.9176257   0.1720694   0.0971733   0.0629584   0.0071534   0.1205894
  -0.3662080   0.6790817   1.2179443   0.8566328  -1.7382506  -0.9087679
  -0.0165760  -0.0508013  -0.2298378   0.1808163   0.0030006   1.1237658
   0.4548765   0.2433751  -0.5942693   0.0531670   0.0852105   0.0910284
   0.3500011  -0.1819366   0.7146263  -0.6233981  -1.2511518   0.6771600
  -0.2183445   0.1392369  -0.2020789  -0.4242597   2.0339456  -1.7167276
  -0.4406286  -0.2625703  -0.0423284  -0.1230422   0.1985376   0.2556610
  -0.5956701   0.0809514   0.2905171   0.3173201   1.0962311   0.4894172
   0.1277147   0.0204394  -0.1568636  -0.9744058   0.2871074   0.9785555
  -1.7906252  -0.9495170  -0.1694878   0.1113395  -0.1015122  -0.2066608
  -1.0522982   0.5546468   0.3479632   0.4980780  -0.4515040   0.0915229
  -0.4116626  -0.4217618   0.2055430   0.6066790  -0.4430628   0.0939396
   1.3450605   0.2129248  -0.0775444  -0.0153888   0.2302752   0.3593123
   0.5563256   0.7027308   1.0889713  -1.2753735   0.6689386  -0.0995137
  -0.0553846  -0.2297859  -0.1252075   0.1503456   0.1588501   0.1915889
   0.2203018  -0.2752139   0.6387942  -0.0671613  -0.2105977   0.2305361
   1.0427536   0.3270660  -0.1161187   0.8323150  -0.9398031  -0.2182709
  -0.1372008  -0.0956376   0.1057464  -0.9547815  -0.6420534   0.7384726
   0.7642222  -1.1397299   0.6182032   0.1630597  -0.1236200  -0.0988192
  -0.9323416   0.2030326   0.4863378  -0.7914281  -1.2302356   0.6671786
  -0.0414172  -0.1054756   0.0145561  -0.4781457  -0.4006181   0.6914759
  -1.4049696   0.2982417  -0.6708335  -0.4033069  -0.0198135   0.0550754
   0.0301596  -1.3288746  -0.5766554   0.4486160  -0.4571246  -0.7410856
   0.1599329  -0.0369850  -0.2883562   1.2790912  -0.5055184   0.5218097
   1.0632081  -0.6957009  -0.2868783   0.0470337   0.0607714  -0.1412187
   0.0525703  -0.3673304  -0.1840152   0.7673688   0.3506872   0.2084331
   0.3922226   0.2475545   0.0385132  -0.1074702   0.2805577  -0.9835252
   1.0237184  -0.4224728   1.1396655  -0.0467448   0.3438115  -0.2309895
   0.8492278   0.6058537   0.7236122  -0.4498458  -0.0452925  -0.1942708
  -0.0723261   0.0202454   0.4720896   0.5267007  -1.0294793  -1.6245534
   0.2695691   0.4280198  -0.2742007   0.1221602   0.1968999  -0.1485091
   0.8893654  -1.3807169  -0.7197297   0.6058519  -0.2299556  -1.3249831
   0.0904805  -0.1275208   0.2813664   0.5149080  -0.7392200   0.0755677
   0.2422542   0.7974348   0.3958664  -0.0869913  -0.1192095  -0.0059804
   1.0787984  -0.4994109   0.7709554  -0.1844860   0.3721194  -0.7222535
   0.0240445  -0.0347354  -0.3223131  -0.6346765   0.1195602  -0.0489179
  -1.3762522  -0.2340456  -0.4628550  -0.3532302   0.0968334  -0.0947720
  -0.7469865  -0.8352188  -0.5320200   0.4799860  -0.4470926  -0.2598147
  -0.2275053  -0.4391211  -0.0608269   0.6518618  -0.6596164   0.0612286
  -0.6692466  -0.3675036   0.4845309  -0.2091476   0.0771170  -0.1125882
   0.7155098   0.7879792   1.4949524  -0.1302236  -0.1966486   0.1998744
  -0.0369701  -0.0213009   0.1312176   0.9557395  -1.2036064  -1.1157070
  -0.5664538  -0.2241122   0.7010090  -0.3467681   0.0280796  -0.1337833
   1.3166834  -0.6212545   1.0268388  -0.7398757   2.1576309   0.2043956
  -0.0361637   0.0980231  -0.1391432  -0.1175227   2.0409939  -0.8783762
  -0.6868938  -0.6540973  -1.8188676  -0.4614208   0.0142032   0.2559290
  -0.6980786   0.2732174   0.2530235  -0.4008310  -1.0616271  -1.0145868
  -0.2816820   0.0863195  -0.1278864  -0.0049941   0.7015570  -1.4281124
  -0.1369057   0.0132488  -1.3521838  -0.1320032   0.4044825   0.0255876
  -1.1233938   0.3547938   0.5448618   0.4107341  -0.4085020  -1.7197182
   0.0137865  -0.1435176   0.1420064  -0.1279397  -0.4358096   0.5074384
  -1.0585631   1.0506204   0.0530359  -0.1353906   0.0649498   0.2023815
   0.7975478   0.9205058   0.0472057   0.2176308  -1.3988401  -0.0735198
   0.0222698   0.1030945  -0.1480348  -0.1911871  -0.8471338  -0.8123035
  -0.1311930   0.1724171   0.2508911   0.0366375   0.1768573   0.0420661
  -0.9657909  -0.9686032  -0.0825600  -1.1256878  -0.8036844  -1.1763240
   0.3164156   0.0286911   0.0449130  -0.3606582   1.2237767  -0.1342189
  -0.3176743  -0.0208308  -0.4235082   0.0349817  -0.1018808  -0.0443765
  -0.2133817  -0.1934730   1.7607684  -0.1864812  -0.4615405   0.4837619
   0.1594434   0.0789906   0.2137769   0.6345434   1.6094060  -0.0994784
   0.5913214  -0.2004461   1.0331755   0.0353309   0.0572676   0.1242625
  -0.5774426  -1.3272314   0.1374141   1.0515620  -0.0361239   0.3697081
  -0.2511937  -0.0081330  -0.2834891   0.2302475   0.2597225  -0.0323873
   0.5430385  -0.0466062   0.2582716  -0.0586209  -0.0239338  -0.0272500
   0.1387761   0.5504702  -0.6044053  -0.1752261  -0.8481411   1.5000657
   0.0072820   0.2528873   0.0944150  -0.3634132  -0.6858451   0.3350103
  -0.3992491  -0.7606516   0.9036563   0.1002414  -0.0898552   0.0686808
  -0.4874765   1.4877310   0.2951186   0.5454254   1.0662436  -0.1909844
   0.0023027  -0.2798516   0.3860581  -1.6065236   0.1388242   1.2202516
   0.5235071  -0.0384586  -1.5712926  -0.2336646  -0.1594501   0.0871100
   0.1207607  -0.2471009  -0.1083928   0.9752985   0.0093692   0.3466087
  -0.0331822   0.0656219  -0.2510487  -0.2670658   0.5513898  -0.5538065
   0.9566232   1.7216477   0.2840448   0.1792457  -0.4283049   0.2150617
   0.3645104  -0.1273533  -0.5728424   0.3434527  -2.0341821  -0.5811867
   0.1416906  -0.0021736   0.1392939  -0.0829465   0.8631908   1.0354757
   0.5750768   0.2820234  -1.4408439   0.1071894   0.0524898  -0.0788543
   0.6988539  -0.4032206   0.3527867   0.2835401  -0.9499065  -0.4366835
   0.1350713  -0.1683990   0.2247598   0.4629446   0.1779457  -1.3523946
  -0.0966334  -1.5581676  -1.3543857  -0.0826167   0.2881105   0.1909430
  -0.7950081  -0.6345594   0.5938751   0.1187014  -0.5108206   0.9653358
   0.1563641   0.0848541   0.2129374   0.1453220   0.4684007   1.4261017
   0.1325092   0.1047404  -1.0250360   0.1355439  -0.2461866   0.0232549
  -0.3939692   0.5353556   0.9995072  -1.3819811  -1.4753098  -0.3543203
  -0.2806303   0.0259201   0.3264670  -0.8830803  -0.6305596   0.3603345
   0.7812319  -0.3195914  -0.5151004  -0.1266930   0.0106963  -0.1521068
   1.0923440  -0.9023470  -1.3505250  -0.4872248  -2.1513572  -0.2672852
   0.0243984   0.2470253  -0.2061898  -0.0103907  -0.3595529  -0.7745115
   1.2085161  -0.8101720  -0.2086816   0.2905088  -0.2057342  -0.1794498
  -0.0634212  -0.0127617   0.8997165  -0.5562400   0.6577269   0.5689620
  -0.0628817   0.1073246   0.3326223   0.7043369  -0.1542954   0.4151465
   0.5958174   0.9955541   0.6084909  -0.1424086  -0.0957701  -0.0288590
  -0.5240979  -0.2248655   0.4735002   0.9134559   2.0572016  -0.2643304
  -0.0876750   0.0915156   0.0904376   0.6294632  -1.0935396   0.4160241
   0.2406427   1.6319155   1.8058366  -0.1994500  -0.1826618  -0.1355898
   0.0784572  -0.1326729  -0.6795195   0.0411381  -0.3151198  -0.3101242
   0.0799538  -0.1226619  -0.1146866   0.0892730   1.3989587  -0.8110418
   0.0353379  -0.5801916  -0.9559168  -0.1149784  -0.0927990   0.1667034
  -0.6842698   0.5958654   0.1443052  -1.3563863   0.4140997  -0.2898246
   0.2345025   0.0997686   0.1199059  -0.9151427  -0.2405488  -0.0286112
  -0.8505518   0.6536433  -0.9439338   0.1776684  -0.3635278  -0.2091195
   0.9938699   0.0463370  -0.2944384   0.2897831   0.2556269  -1.4664721
   0.0105166  -0.0254581   0.0409929  -0.5439728   0.3528814  -0.3286670
   0.8598277  -1.1733630   1.1853037   0.1537994   0.1537115  -0.2248695
  -0.5412784  -1.8037176   0.4162249  -0.1388924   0.4341713  -1.4436506
   0.0282260  -0.1159516   0.4126690  -0.5227877  -0.5436600   0.2758150
   0.1491652  -0.2892835   0.5878589   0.1911523   0.0648533  -0.2717940
   0.1987919  -0.2234841  -0.0067426   0.4435397   0.7559620   0.0492321
  -0.1591637   0.0146357  -0.1727145   0.3378064  -0.0048737   0.0489138
   0.6542632   0.0481355  -0.5027356   0.1518242   0.1924592   0.2809956
  -0.1090463   0.8577616  -0.6692666  -0.7150812  -1.1833444   0.5529054
  -0.2435637   0.2057712  -0.0029361  -0.6658520  -0.1307081  -0.8524132
  -0.7751188   0.9097633   0.7451128  -0.2929146   0.0434451   0.0615880
   0.3542149   0.3198172  -0.1782608  -0.3815564  -0.3475335  -0.0673943
  -0.0200550  -0.0458881   0.0822046  -0.0042626   0.4490426   0.0726532
  -0.9850600  -1.4335659   0.0084794  -0.1074434  -0.0809977  -0.2875807
  -0.7712221   0.8271647  -0.1530320  -0.8605964  -0.0859870   0.3586978
   0.1808336   0.0170821   0.0633001  -0.9292813  -0.1706467   0.3505393
  -0.9974901  -0.4897826  -0.2705717  -0.0307486   0.4340465   0.2906760
  -0.2304451  -0.6410749  -0.4678033  -0.7268688  -0.3215697  -1.0809436
  -0.1040796   0.1566779  -0.0345104   0.5328294   0.2964133  -0.5335143
   0.7469562  -0.9436803   0.6849169  -0.2155164   0.1520921  -0.1850045
  -0.2887299   0.0726853  -0.1841961  -0.7749292   0.1740965   0.2501964
  -0.0146012  -0.0639846   0.0541382  -0.8877661   0.8252593   1.2772768
   0.5607297   1.0576859   0.5086570  -0.4082952   0.1657251   0.1775420
   0.1436126  -0.9569203   1.9067231  -0.5668248   0.3833904   0.8833739
  -0.0868939  -0.0572605  -0.0085575   1.0523015   0.7393872  -0.5486392
  -0.1828226  -0.1012664  -0.8068056  -0.1068778  -0.1892998  -0.2062739
  -0.0402063  -0.1064015   0.7316344   1.5883923  -0.0879850  -0.4118724
  -0.1612019  -0.1772740  -0.0009886  -0.9340890   0.8354359   0.7765605
  -0.7105181  -0.7223665   0.2215354   0.3651664   0.3760839  -0.1079587
  -0.7601362   2.3916249  -1.6366286   0.1294314   0.3951347   0.4837065
  -0.0101675  -0.4117324  -0.0924542  -0.4333469  -0.9725199   0.9959909
  -0.3126253  -0.1157809  -0.6116210   0.0803833   0.1954291  -0.0977598
   0.1548256  -1.5510483  -1.0912743   1.7953125   0.6409330   0.6386999
   0.1703194  -0.0094861  -0.2138308   0.4306152   0.0515615   0.1091122
   0.2763727   0.5859650   1.5499548  -0.4663707  -0.0154853  -0.0533898
  -0.5884821  -1.6451766   1.0697761   0.2201244   0.0840535   0.6770784
  -0.1144003  -0.2602992  -0.1149527   0.1170365   0.0961833   0.9040344
  -0.5590132  -0.1872902  -1.0245290  -0.1348773  -0.1202900  -0.0128831
   0.1026540   0.0927695  -0.7980798  -1.0900910  -0.0262563   0.4589657
   0.1642089  -0.3393368  -0.2143274   0.7923084   0.2183210  -0.5899494
   0.5463390   0.9774465  -1.0438951  -0.2093135   0.1359137   0.0755621
  -0.6243634  -0.0401917   0.4304894  -0.4531568  -0.5085446  -1.9232368
   0.1438890   0.1047206  -0.4235569   0.7325320  -0.5304583   0.2161402
   0.2814238   0.4370336   0.0982710   0.0980874   0.0132578   0.1686931
   1.2195145   1.0037397  -0.8625997   0.3975427  -0.0557839   1.1697336
  -0.4602444  -0.2013079   0.0029766  -1.1418785  -1.2337974   0.7747381
   1.0052526  -0.5308173  -0.7214544  -0.2063967   0.0833380   0.1268239
  -0.3828743   1.4309516  -0.3300380  -0.1902256  -0.5059981   0.1178187
   0.2089444   0.4298666   0.1436096   1.0269761  -0.0418949   0.6124895
   0.6624863  -0.9363398  -0.9884639   0.0320971   0.3388665   0.1366885
   0.2181267   0.9012619  -1.3241144  -0.3777595   0.0581281  -0.2688593
   0.1175215  -0.5189879  -0.3243076  -0.0146377  -0.5008706  -0.2089952
  -0.3797062  -1.1211981   1.4180243  -0.0250225  -0.3396325  -0.2826280
   0.3814369   0.1532690   0.0949601  -0.5168096   0.5069419   0.1740472
  -0.0716796   0.0629237  -0.4428983   0.3970327  -0.2650891   0.8214837
  -0.2301790   0.8578427   0.1546883   0.1232355  -0.0184725  -0.1493168
  -0.8766353   0.5665719   1.0079337  -0.1942374   0.9372428  -0.2260211
   0.0872100  -0.3045794   0.1412518  -0.3296650   0.4474888   0.5305426
   0.1327377   0.2953730  -0.5769722   0.2299497  -0.2221657   0.1546688
   0.2087927   1.2946007   0.5040048   0.6774014   0.5322852  -0.5758305
   0.0296223  -0.0196458   0.1209764  -1.0846560   1.6780649   0.5237893
   0.1216062   1.3511169  -0.7551640  -0.1556750  -0.0610263  -0.1877096
   0.7566923   0.6809437  -0.2736840   0.2380046  -0.4420322  -1.1260334
   0.0759468   0.2805548  -0.4352828  -0.3474968  -1.1985859   1.1671083
  -1.0313686  -0.9272314   0.6586039   0.0890303   0.0106188  -0.3926460
   0.0741209  -0.2757342  -1.5287220  -0.2630133   0.5042340  -1.7298503
   0.4862237   0.2093963   0.1206212  -0.8367194   1.2575843   1.1243563
  -0.6423810   0.7847199  -0.4055872   0.1182852   0.1543325   0.1440723
   0.5964109   0.4363416   0.0065111   0.4457221  -1.5063294   0.2227785
  -0.1705400   0.1000356  -0.2090338   0.2547609   1.3143762  -0.8307107
   0.4472256   0.6645209  -0.3180836  -0.1734660  -0.2777476   0.0307892
   0.3743438   0.4854850   0.3020362  -0.8951462   1.0958000   0.0709090
   0.2761760  -0.1826399   0.0933894   0.0488470   0.3449008  -0.3673247
  -0.6711046  -0.8337659   0.2987712  -0.3328927  -0.1451252   0.0606668
   0.7541727   1.0296715   0.4371581  -0.0849783  -0.2712493  -0.3091314
   0.1570042   0.2816380   0.1252396   0.5528232  -1.1584699   0.3879892
   0.8143221  -1.0371690  -0.8947160  -0.0819690   0.0084920  -0.0132972
  -0.3421227  -0.1076223  -1.3628092   0.8487060  -0.7773622   1.3732582
   0.0464428  -0.2625241   0.1578942  -0.3482500   1.3058343   0.1354604
   0.4324906  -0.1975729   0.0705566   0.2631952   0.1048487   0.2893673
  -0.1842055  -0.1701306   0.5140830  -1.4668000   0.9877732  -0.2924443
  -0.3703502  -0.0358416   0.1358277   1.4408648  -0.2563595  -1.2618474
   0.9151071  -0.8357095   1.8895944  -0.1216580  -0.0245631  -0.5980784
  -0.6197460  -0.3302515  -0.9039068   0.2302420   0.5747250  -1.1254367
   0.2584193   0.3124177   0.2937639  -0.3357938  -0.3307877   0.4690619
  -0.5252320   0.1991549  -0.8867173   0.0465361  -0.0072508   0.0928074
   1.3367336   0.4075338   0.5425131   0.7114749  -0.4987974  -0.2704548
  -0.0347164  -0.0966213  -0.3591141  -0.4481653  -0.3566356   0.3888654
   0.0594238   0.4174333  -1.0367184   0.0103833   0.1075895   0.1697928
  -0.3149922  -0.5330190   0.1554098   0.0821807   0.2149506  -1.5589259
   0.1515403  -0.1119038  -0.1352189  -0.2992202   0.0397359  -1.9496777
  -0.2048879  -0.4124867  -0.1176521  -0.2292100  -0.1258078   0.1553792
  -0.7152423  -1.4379816   1.1141629  -1.5218709  -0.8962324   1.1235598
  -0.1415642  -0.2192894  -0.0973537  -1.1574986   0.0305828  -1.2393066
  -0.9606994  -0.5097389  -1.1583536   0.3124056  -0.0423159   0.0839144
  -0.2234726  -0.6203989  -0.0035991   0.0019845  -0.5095196   0.9797083
  -0.0638888  -0.2032566  -0.1939876  -0.6822061   1.1856806   2.3961725
   0.8912784  -0.3189897  -1.1734703   0.0482386   0.0628800   0.0953298
  -0.1437281   1.2347127   0.0035279  -0.3182702   0.1090912  -0.2056643
  -0.1876115   0.2110502  -0.0136132   0.7445094  -1.5360842   0.9823802
  -0.7334668  -0.3494457  -0.1918598  -0.1065298  -0.3256821  -0.2170006
   0.9868082   0.5903670  -0.7478841  -0.8237756  -0.7981177  -0.2560124
   0.0771765   0.0069343  -0.5761325  -1.8465481   0.3009578  -1.6663098
   0.9252957  -2.0460868  -0.9791901   0.2267872  -0.0655306   0.1360896
  -0.3768212   1.0558844  -0.6278002   0.2607276   0.4006473  -0.9572620
  -0.1003380  -0.1264620  -0.0034762   1.1440856  -1.8166852  -1.4058396
  -0.0979731  -0.7341857  -0.8225835  -0.1200785   0.0312047   0.2174944
  -0.3157159  -0.3274811  -1.5393945  -0.9696444  -0.8643295  -0.9658718
  -0.1720351  -0.2607695   0.0638158  -0.7331156  -0.3870018  -0.5520740
   0.0663234  -0.1138535  -1.0029291  -0.1832338  -0.2921513  -0.1329301
  -0.9237429  -1.3508352  -1.2515178  -0.8372517   0.2869502   0.8949418
  -0.0182003   0.0701001   0.3227583  -1.0989215  -0.3909580  -0.0064205
  -1.5313469   0.6748599  -1.1763027  -0.4801790   0.0104156   0.1990255
  -0.3811115  -0.8846817   0.4757108  -0.4449722  -0.4393533   0.4366958
   0.1583495   0.0959643   0.0214631  -0.6291058  -0.2259321  -0.7037706
   0.2571634  -1.0347784  -0.7650985  -0.0214010   0.0870691  -0.2739479
  -1.5517923   0.2475481  -0.7352469   0.3528677   0.7538217   0.1198668
   0.0970985   0.1477382   0.3791484  -0.1155729   0.1395433   1.2599894
  -1.2625988   0.4865047   1.2730515  -0.0850163   0.3173854  -0.2655947
   0.6056580   0.7567461   0.3121546   0.0949397  -0.5119241  -0.0346785
  -0.2901799   0.3014951  -0.3287461   0.2000805   0.2549060   0.3137431
  -0.5970373  -0.6669064   0.4032979   0.0459722   0.0014358  -0.0187994
   0.2890838  -0.7154409   0.7316979   0.1651351  -0.6504943   0.3988275
   0.0930520  -0.2000917   0.1357348  -0.5140320  -1.4806097  -0.8375784
  -0.7304363  -1.4670978   0.4492855  -0.0786296  -0.2151659  -0.0231471
  -1.4225676  -0.2194501  -1.2030272  -0.1339130  -0.8352036   0.1457499
   0.0275095  -0.1237901   0.2520341   0.2055435  -1.3317428   0.6332986
   1.1413469   0.5864855  -0.7128574   0.0881063  -0.1639384   0.0879349
  -0.2980187  -1.3718004  -0.6366298  -0.6708038   0.1226844  -0.0282650
  -0.1630293   0.0049478   0.1031503   0.6099214  -1.2595594  -0.3749360
   0.8413705   0.6756482  -0.3407576  -0.1914315  -0.4246130   0.1372163
   0.3876026  -0.4997693  -0.3589084  -0.8751698   0.6637506  -0.2849338
  -0.0524541  -0.0235867   0.0162231   1.0871264   0.0334834  -0.5211641
   1.4214652  -0.6027578   0.1688953  -0.2351989  -0.3853895  -0.0196747
  -0.9126689   0.5029755   0.2109881   0.8394928  -0.2538716   0.4983442
  -0.0756940   0.1069015  -0.0498844   1.3436102  -0.6077307   0.7570235
   0.2522328   0.4543460   0.2775226  -0.1747639   0.1156570  -0.0910849
  -0.2459140   0.5588481   1.1567998   0.3240128  -1.9674394  -0.3972024
  -0.0061038  -0.2418628  -0.0409413   0.1634236  -1.1234794   0.5209563
   0.5373283   1.7951925   0.8399752   0.1212813  -0.0096410   0.0248939
  -0.9679592  -0.0725274   0.8701024  -0.2093237  -0.3211125   0.1147375
  -0.0278670  -0.2843768   0.1476461  -0.7033437   0.4164278  -1.3401122
  -0.7271855   0.0962095  -0.7210080  -0.2729540   0.0447593   0.3712190
   0.1578746  -0.3327551  -0.1037253   0.7524976   0.0330113  -0.8293490
  -0.0985636  -0.1211936  -0.0860396  -0.2292577   1.6714617   0.3398239
  -0.2957179   0.4213648  -1.0772533  -0.1651608   0.0763219  -0.3537249
  -1.4814614   0.1330217   0.9621226   0.1656266  -0.1730852  -0.1250274
  -0.2433874  -0.3094086  -0.3320401   0.3184779  -2.2124190  -0.8464878
   0.5419488  -0.0106480   0.8586813   0.2936612   0.3149121  -0.2845810
  -0.0629015  -0.4792046   0.1938602  -0.4703418  -0.4139442   1.0590817
  -0.0940441  -0.1409286   0.0105741  -0.0186844   0.6828877   2.0632870
   0.2044960  -0.7434899  -0.0547440  -0.0670137   0.2348384  -0.0196988
  -0.3720382  -0.7655247  -0.3901430   0.0161547   0.2286013   1.0494577
  -0.0384273   0.0055182  -0.1645491  -0.2478389  -0.0357924   0.8219597
  -0.5101261   1.4990437  -0.5912898   0.0094036   0.0920295  -0.0458334
  -0.8561174  -0.0014937   1.5164711  -0.8930585   0.4572103  -0.2091575
  -0.1492838   0.1159520   0.0700052   1.1266373  -0.6526945  -0.3072269
  -0.2995582  -0.3343227  -1.0933346   0.3263863  -0.0174511  -0.0049860
  -1.3185749   0.9684170   0.7870417  -0.9597750   0.3204130  -1.2443931
   0.0815957   0.1237253  -0.0669480   0.4013849  -0.4831752  -0.3170327
   0.3698415  -0.8768653  -0.7965816  -0.1504102   0.2365622  -0.2980574
   0.3656143   1.8777013  -0.6741440   1.4693419  -1.2568961  -0.3078054
   0.2481167  -0.1203908  -0.1700229  -0.5558667  -0.5694625   0.2513037
   1.1386590   0.4938760  -0.3339936   0.0067294  -0.0943527  -0.0615087
   1.5235751   0.4218092  -0.7673351   0.1186419   0.4613340   1.0737584
  -0.0909946  -0.1932252   0.0117844   0.7781748   0.2871663   0.8633339
  -0.2777417   0.9926143  -0.4620956  -0.0582089   0.1078347   0.0298577
  -1.3699057   1.0321945   0.9321145  -0.3295807   1.5599326   0.5548465
   0.4780293  -0.2794244   0.0365483   0.6036142   0.6007700   0.0247335
  -0.0864242   0.0797456   0.5337643   0.3484561  -0.3322196   0.0403967
   0.2002703   0.8674966  -0.5090581   0.1114677   0.5096357   1.0203723
  -0.1412281  -0.1213405  -0.3659417   0.1821679  -1.4265798  -1.5330778
  -0.6639699   0.6996690  -0.2182212   0.3381484  -0.0486881  -0.2014888
  -0.2430076  -0.4508690  -0.4119910   1.5312449   0.8882387  -0.4357002
   0.1193122  -0.1635541   0.0776863   1.3188677   1.8878623  -0.3699472
   0.7160335  -0.8806215   0.6138495  -0.1321306  -0.0116771  -0.0457176
  -2.0123537   0.6731517   0.3851659   0.9226133  -0.4179243  -1.3798635
   0.0526631   0.1599890  -0.0573231  -0.0397890  -0.0727708  -0.9547260
  -0.8007166  -2.9624991  -1.7000777  -0.2527750  -0.2017574  -0.0739952
   1.2712421   0.0571135  -0.6868925   0.0121137  -0.8195944   0.1167268
  -0.4110245  -0.1739223   0.1012372  -1.8228614   0.6975393   1.4938586
  -0.3088819   1.2612138  -1.0160406   0.4631186   0.2189480  -0.1004458
   0.1766328  -0.2692379   0.1352047   0.2819555   0.8160147  -0.9857216
   0.0821699   0.2987662   0.0893376  -1.4449445  -0.5264938  -0.4552602
  -1.3571358   0.3673078   0.9228621  -0.0030704   0.1918548   0.0043817
   0.4070039  -0.0151625  -0.9499050  -0.3892601   0.9002702   0.2032155
   0.3139001   0.2582696  -0.0184780  -0.2294899  -0.5565009  -0.4663958
  -0.7408224  -0.1143264   0.0997081  -0.3521073   0.0736850  -0.0512328
  -0.1720061  -0.1809373   0.3673280   0.3416385   0.6959601  -0.2843483
  -0.0998133  -0.0217648   0.0673795   0.3294609   0.6070085  -0.2599885
  -0.5472237   0.6274191  -0.2346971  -0.1341265   0.0672969   0.0558210
  -0.1207378   0.3723459  -1.1505939   0.8387773  -0.6568200   1.2942213
  -0.1543653   0.0467864  -0.1262726   0.3432333   1.7641393   0.4851131
  -1.0518396  -0.0282529  -0.0498467  -0.1404647  -0.2671672  -0.0636547
  -0.4609129  -0.0464914  -0.1199080   1.2915304  -1.0050644   0.6671748
   0.2700534   0.1810903   0.1092922   1.3832018  -1.8500117  -1.6310681
  -0.5179434  -0.3629792   0.7621045   0.1147683   0.0418801   0.1902310
  -0.1006690  -0.2789328   0.5568456   0.1206038  -0.8284577  -0.2059851
   0.0487278  -0.2280505  -0.1278191  -1.2831715  -0.2375915   1.0063566
  -0.6276793   1.1256266   0.1459329   0.1366281  -0.1845287  -0.1914688
   0.0248392  -0.5598760  -0.1044293   0.3333260  -0.5525194  -0.0534002
  -0.1768311  -0.1448517   0.3179235  -0.5138912  -1.2976534  -0.4010359
  -0.3041871  -0.1572367  -0.2814901   0.0387757   0.0432647  -0.1545706
   0.4351563  -0.0673725  -1.6802367  -0.9688317  -0.1014874  -0.5098168
  -0.1557936   0.2530798   0.0995740   1.0390290  -0.8496453  -0.4997836
  -0.2704109  -1.7290126  -0.3970279   0.0104864   0.2246107   0.1069872
   0.3058818   0.5202006  -0.2589845  -0.6320168   0.1815646  -0.7617986
   0.0432460  -0.5647669   0.0136160  -0.4296380  -0.9236624  -0.1080013
   0.2540442   0.8429942   1.4412235   0.1760575   0.1387543   0.1497264
   0.6437445   0.4996149  -0.6845384  -0.1150137   0.9422603   0.4679945
   0.0911368   0.2212756   0.1236969  -0.8586936   0.3740291  -0.2951939
   0.7104780   0.6162290  -0.4033910  -0.0423742   0.0813086   0.1283404
  -1.5943900   0.1937584  -0.2142830  -0.4152282   0.3193836  -0.0008102
   0.1588318  -0.1739828  -0.4402434   1.1717749   0.6754852  -1.2974687
   0.1147130  -0.3468439  -0.4785687  -0.0103197  -0.0735939   0.0334630
  -0.2126891  -0.7678049   0.4151746   0.8309324  -0.8570915   0.0691932
   0.2054457   0.0006614  -0.0068153   0.7236627  -0.2901577  -0.7529190
   1.4315560   0.8821151   0.9281321  -0.2126997   0.0419631  -0.1352450
  -0.7678894  -1.7088988  -1.2416085   1.3903984  -1.1958187   0.1226824
  -0.0365100  -0.3154361  -0.2063385  -1.5162132  -0.1476725  -0.7669494
  -0.2156013  -0.2724623  -0.7734733  -0.0836736   0.1428302   0.0700419
  -0.4135375   1.2057712  -1.1502663  -0.8849898  -0.5388804  -1.0412914
  -0.2286562  -0.0802719  -0.1388313  -1.3886768   0.6738079  -0.8733803
   0.3206711  -1.4306924   0.8342748   0.1908080  -0.0930674   0.1712625
  -0.2593975  -0.8617074  -0.3717359   0.5120998   0.6389931  -0.0826012
  -0.2118496  -0.2078967  -0.0021223  -0.6373969  -0.2667371   0.3753140
  -0.3479483   0.0964782  -1.0086486  -0.2954081  -0.2340738  -0.0772940
  -0.3501221   0.1775350  -0.0190681   0.9237877  -0.0224737  -0.3136786
   0.2252729  -0.1655458   0.0555812  -0.3065574  -0.7849984  -0.3906554
   0.2018152   0.8038682   0.0603272  -0.0115106   0.2900805   0.2935986
   0.1626267  -0.1246691  -1.6106392   1.3332926  -2.0700607   1.1338598
  -0.3399529  -0.2199284   0.0660168   0.6917790   1.2349070  -1.4187402
  -1.7707887  -0.7448003   1.0253127  -0.0371047   0.0567540  -0.0532520
  -0.0612739  -1.0288186  -1.3856372   0.6011630  -0.9694423  -0.1547073
   0.0324422  -0.2664403   0.1303684   0.9542772   0.4002866  -0.7076566
  -0.4966100   0.0945526  -0.3494625  -0.3767980   0.2083651   0.2388121
  -0.0252353  -1.4932070   0.1851207  -0.0061224   0.9150895   1.3356739
  -0.0699672  -0.1780002   0.0361869  -1.0717858   0.7331203   0.4293218
  -1.1768373   0.1515756  -0.3561801  -0.2103063  -0.1045247  -0.1715533
   0.9688209   1.6792338  -0.5935605  -0.1809287   0.6953045   0.4945371
  -0.1940225   0.1234766  -0.1132897  -1.5157094  -1.0133973   0.9026934
   1.6321483  -0.8821149  -1.0191436   0.1034056  -0.1575225  -0.2711183
  -0.0992031  -0.5971916  -0.6364392  -0.2709197  -0.1985100   0.2877594
   0.0439557   0.0954708  -0.3315329  -0.7534004   0.2559700  -1.1485561
   1.0649322  -1.7235079  -0.4938692   0.3296818   0.2563159   0.2915910
   0.2766975   0.2676708  -0.4140299  -0.5855492  -0.5017816  -0.9059534
  -0.3750353  -0.1587077  -0.1653553  -0.4919006  -0.5780441   0.9117786
  -0.8116129  -0.0172484   0.2140227   0.1758354  -0.1234355  -0.1164186
  -0.4131345   1.2183189   0.2625444  -0.3200260  -0.5461060  -0.0521067
  -0.1325283  -0.0259072  -0.0960810  -0.5091063  -1.7994539  -0.3031878
  -0.8778418  -0.0996665   1.1167312  -0.0753098  -0.1065133   0.0704759
   0.4693167   0.7086107  -0.7143555  -0.4158550  -0.1968848   0.1298357
  -0.0354946   0.2953113   0.1161682   1.4079028  -0.1032738   1.7663108
  -1.8212385   0.2535005  -1.9234661  -0.1253658  -0.1368736   0.0898900
   0.7419482  -0.9021549  -0.4323925   1.6588185  -0.2178138  -1.6175005
   0.1998742  -0.5418519   0.1861014   1.3279780   0.7717100   1.6121750
  -1.2747142  -1.0642557  -1.2087131  -0.0693887   0.1003461   0.2072680
   0.1270330   0.3235346   0.8456935  -0.4382610  -1.1320143   1.7527717
   0.1302862   0.2626523  -0.3768546   1.3820918   1.4467019  -0.8970460
   1.0054370   0.2428220  -0.3920705  -0.2037170  -0.1404578  -0.0866079
  -0.1560401  -1.6740518   1.1954571   0.6382503   0.9184700   0.6271387
  -0.0476262   0.0290931  -0.1968727  -0.4059396  -1.2713492   0.8230644
  -0.2712042  -0.2002534   0.5972216   0.1198557  -0.2151172  -0.1698162
  -1.3463888  -0.0480965  -0.7884337   0.2600701   1.0789968  -0.1793203
  -0.1119394  -0.0756457   0.2964596  -0.5997204  -0.1519343   0.5393448
  -0.2177357  -0.0105370  -0.4975293   0.2018716   0.2203778  -0.0351064
  -0.0855383  -0.8241112   1.2072264   1.0031787   1.0279472   0.9071946
   0.1617971  -0.1396643  -0.3367080  -1.1307958  -1.2974758   0.4608214
   1.0138478   0.0248594   1.0253359  -0.0473706  -0.2486280   0.3034782
  -0.7122040  -0.9183611   0.1792524   0.1204689   0.3922912  -0.2486034
  -0.3388394   0.1418936  -0.0254184  -0.3806966   0.7104119  -0.7530242
  -1.3198841  -0.2153452   1.4125507  -0.1080143   0.1944379   0.1234344
  -1.1096083  -1.3459511  -0.0389628  -1.0972780   0.6221501  -0.4278880
   0.0917763   0.1785202  -0.2154757  -0.3383386   1.1678784  -0.1583882
  -0.2195894   0.6172714   0.9577047  -0.3199191   0.2503889  -0.3565290
   0.9075078   0.7233708  -0.0621876   1.0647900  -0.0915910   0.9080541
  -0.1114334   0.0990903   0.2989758  -0.7280782   0.0128604  -0.6090568
   1.3995060  -0.3229670  -0.0925399  -0.5160229  -0.1878818   0.0081456
   0.0011589  -0.5027610   0.0010281   1.0202577   0.7951249   0.7514827
  -0.0378678  -0.1970913   0.1258051   0.4892216   1.1973016   0.3518926
  -0.5169882  -1.9324269   0.4227611   0.3152680   0.2746414  -0.0432814
   0.3094501  -0.5692218   0.8492534  -0.8573567  -0.0643387  -0.7502350
   0.0928781  -0.0591522  -0.0059216   0.0971977  -0.5692079   1.0347136
   1.4203894  -0.0599802  -0.1834283   0.1529574  -0.0606555  -0.2575844
   0.2587423   0.6619138  -0.5757411   0.3251989   0.5782107  -0.0744043
  -0.3081822  -0.1872249   0.2783976  -0.1489778   0.6210767   0.5303096
   0.5856371   0.8892992   0.0663453  -0.1144423  -0.1150188  -0.5384963
   0.0033387  -0.5457844   0.1305638  -0.9890695  -0.4707451   1.2551589
   0.1438498   0.1068910   0.1267716   0.8387019   0.7038158  -0.4459558
   1.5332435   0.8275034  -0.0983321   0.0739025   0.0128595   0.3291136
   0.2196813  -0.0211505   0.3949136   0.8515222   0.0806460  -0.9825116
  -0.2429062   0.0383704   0.4390294  -1.0662185   0.8764154   0.3210844
   0.9573177   0.0736835  -1.1350483   0.2630849   0.2679666   0.1979394
   1.0275196   0.3354345  -1.3889104   0.3019153   0.3555991   0.3311498
   0.1798615   0.3033952  -0.2261228  -2.2026365  -0.2214328  -0.2203043
   0.6185128   1.1815426  -0.1006103   0.3530439  -0.2874351  -0.1601071
  -0.0715948   0.8579286  -0.3757216  -0.1749304  -0.7233481  -0.1909331
  -0.0565377  -0.1768956   0.1442390  -0.7208847  -0.1219805  -0.7628039
  -0.2222855   0.1955472   0.8190191   0.1712582   0.0726235   0.0307019
  -0.5858061  -0.8341964  -0.2818463   1.0708179   0.9340568  -0.7460170
  -0.1331007  -0.2045237  -0.2332976  -0.6797074  -0.9473785   1.5896944
  -1.1536241   0.6578109  -1.8198283  -0.1423780   0.1421055   0.0675329
  -0.6747491  -0.6892853   0.3915717   0.6771541  -0.2226791  -0.4695186
   0.0227659   0.1200541  -0.4216720  -0.1971472  -0.1312122   0.8917355
  -0.2076395  -0.5746217  -0.0187180   0.1043187   0.0978351  -0.0275287
   0.1096684  -0.0851416  -1.1727066  -0.4832516  -0.8266195   0.6253425
   0.3624218   0.2660368  -0.4292854  -0.1969788   0.1199572  -0.5732425
  -0.5312072  -0.0139853   1.1019514   0.2514381  -0.0772886  -0.0731745
  -0.0690027   0.6268295   1.1472398   0.5418897  -1.7384447  -0.1306060
   0.2208623  -0.1488118   0.0726696  -1.3608583  -1.5006088  -0.8673265
   0.8494219  -1.0576472  -1.5561916   0.1503049  -0.0303587   0.1638289
  -0.3533887  -0.9617780   1.0190071  -0.8013936   1.1722386   0.5578379
   0.4778099  -0.0556289   0.1333672   0.0042701  -0.3438908   0.9264744
   1.8250000   0.7532709  -0.1186991   0.1405042  -0.2461208   0.0997938
   2.1627936  -0.3190475  -0.9232195  -0.2190974  -0.2377912   0.5912535
  -0.0888912  -0.2205271   0.1769143   0.6143079   0.3084187   0.0954647
   0.9899321  -1.8317305  -0.4606401  -0.0264711  -0.3266412  -0.0494805
  -0.2596920  -0.9043047  -0.6772464   0.2315861  -0.4590646   1.4339058
  -0.0112117  -0.2263248   0.0394748  -0.5059617  -2.4513710   0.2808898
  -0.1234625   0.9314516  -0.0610781  -0.1271195   0.2300049  -0.1262586
  -0.2346163   0.3110285   0.1338457   0.7157093   0.7962558  -0.3809068
  -0.0294321  -0.0383353  -0.0615816  -0.1406301   0.5614479   0.1341895
  -0.0141198   0.3141016   1.3841090   0.2594549  -0.0491613   0.2303341
  -0.6863074  -1.0641534  -1.0378475   0.9897863  -0.6961821   0.5322229
  -0.3539400   0.1313396   0.2312786   1.2612547  -0.7618917  -1.2293278
   0.4476286   0.0720962   1.0449125  -0.0395181  -0.0574618  -0.1575007
   0.1821455   0.6585955   0.3279363   0.3560432  -0.0029613  -2.0259442
  -0.0877732   0.2351179   0.1343622  -0.8963569   1.5780677  -0.1121694
   0.0563669   0.0879061   1.5806109   0.0099673   0.1421112   0.1971653
   0.1464536   0.3303624  -0.6486450  -0.1671178   0.5674367  -0.1013465
   0.2681501  -0.2255173  -0.1833090  -0.5301369  -0.0329854   0.9534234
   0.2169480  -0.9165866  -0.4426125   0.1770535  -0.0986088   0.0336810
   0.2318913  -0.9820160  -1.1721917   0.3443340   0.3183509   1.0018348
  -0.1125271   0.1668627  -0.2712714  -0.1258991   0.9038308   1.2292261
  -0.4272591   0.1727399  -1.1771591   0.2170121  -0.1265711   0.0831968
   0.0715061   1.8462603  -0.4094466   0.3060180   0.6116230   0.4292929
  -0.0435177   0.0172310   0.0050549  -1.5836465   0.4523298   1.8666973
  -0.1548710   0.6865228  -0.0927496   0.1105256   0.2480815  -0.1605358
   0.9730869  -1.1655725  -0.0973752   1.9231489   0.5921958  -0.3345956
  -0.0922048  -0.1137381  -0.1952404  -0.1615866   0.5512143  -0.3252796
   0.5304971   0.6141341  -0.0128038   0.1016856   0.1461525   0.3210349
  -0.1148024  -0.1063349  -0.7321076   0.3425848  -1.1703361  -0.4214185
   0.2131327   0.0550109  -0.3266057   1.5459929  -1.2940609   0.2035932
   0.6594836  -0.4487434   0.3073613   0.1035712  -0.3166042   0.0036183
   0.2538704   0.8978674  -0.5489837   0.4888524   0.3059905  -1.3496192
  -0.0113953   0.1485621   0.3125135   0.0481450  -0.4269309  -0.5806284
   0.3160315  -0.2744253  -0.5519463   0.3420890   0.1961893  -0.0755537
  -0.4210846  -1.0850053  -0.6498488  -0.5079011  -0.3900627   0.1107496
   0.0056699   0.0199847  -0.0407573   0.6206052  -1.2663895   0.3225844
  -0.7264383   0.4446230   0.7891007   0.0331090   0.0339211  -0.0435956
  -0.8570544   0.5978765  -1.2234584   0.6948942   1.3457681  -0.3313596
  -0.1339980   0.0652725   0.0976318  -0.8195328   1.0097878   0.2307831
   0.8298459  -2.1234539  -0.4352360  -0.3771953   0.0193966  -0.1810764
  -0.5317401   0.1439684   0.6690096   0.6807381  -0.9362440  -0.6403102
  -0.5531867   0.1001885   0.2506692   0.1954511  -0.0307551  -0.4348238
   0.1537415  -0.1977522   0.2867984   0.0488313   0.2793472  -0.2731016
   0.4039576   0.7983067   0.0752563  -0.4909312  -1.6501361   1.3509129
   0.3947563  -0.2985424  -0.1176003  -0.0838446  -0.2862312  -0.8185107
   0.6516852  -0.4595506  -0.1790582   0.2966726   0.0260542   0.0211134
   0.0674968  -0.0875923   0.2665842  -0.1104961  -0.7140442  -0.9440565
  -0.1932690  -0.1989103  -0.2766752   0.0360965  -0.2453061  -0.7843134
   0.6522226  -1.5696442  -0.6793695  -0.0358239   0.2074551   0.1185082
   0.4870271   1.1472819   1.0433912  -1.0394973   1.8727546  -0.0176678
   0.2348105   0.2370483  -0.0312441   0.3446569  -1.6191221   0.6827118
  -1.4976956   0.4233650   0.1508836  -0.1572797  -0.0896320   0.1911045
   0.8806816  -0.0958866  -0.2071212  -0.0426439   1.0723133   0.2224963
  -0.1900212  -0.1140630  -0.0787971   0.9478837   0.1246616   1.6487247
   0.6496575  -0.2542538  -1.0312358   0.0564754  -0.2977878   0.3891872
  -0.2513251   0.4599183  -1.3381039  -0.0686777   1.3652147   0.9622568
   0.1620226  -0.0306284  -0.1212319   0.4987524   0.9927767  -0.3190793
  -0.7437868   0.1267190   0.1398270   0.0232189  -0.2205940  -0.1615327
  -0.9469604  -0.2431059  -1.6441636   0.7120520  -0.8245792   1.2625786
   0.1242785  -0.4084163   0.0034122  -0.5941238   0.0357103   0.2330970
  -0.0671790   0.6350667  -0.3797375   0.2100737  -0.3897105  -0.2395477
   0.9703428   1.4210012   1.6012635   0.5016235   0.7061571   0.7734809
   0.1074641  -0.0848477   0.0631138  -0.2291784   0.0910457  -0.0174962
  -1.3093692   0.9849964  -0.5169255  -0.0820432  -0.1800205  -0.0734199
   0.1463874  -1.0824277  -0.2092442  -0.3350823  -0.5615014  -0.3629231
   0.2875459   0.1620508   0.0190957  -0.5446787  -0.8010578  -0.2270551
  -1.0657064  -0.1823773   0.5480205  -0.2312241   0.0490480   0.1019066
  -0.6080661   0.7717367  -0.2009408   0.1399231   0.1486486  -0.2792315
   0.4981298  -0.3443342  -0.0292945   0.3819622   0.6071661   0.1874406
   0.5237286   0.2952926   0.0802481  -0.2089181  -0.0351232  -0.3007221
  -0.1907847   0.2992852  -1.1612772  -0.1994596  -0.3662701  -0.2726695
  -0.3119787   0.1403716   0.0341272   0.1117480  -0.8136759  -0.1431397
  -0.9952800  -1.0972000  -1.4974098  -0.1019979  -0.3511034  -0.1126815
  -0.7137408  -0.6442530  -0.2080674   0.2861396   0.7368889  -0.4787282
  -0.3621164  -0.0414323   0.0466337   1.2024894   0.1848326   1.6409528
   0.0321082   0.2416753  -0.1920676  -0.3034455   0.0752603  -0.2130907
  -1.3741794  -0.6391047   0.8581764   0.4793530   0.4391450  -0.9722596
  -0.3484910  -0.1965068   0.1691206   1.1407359  -0.0280098  -0.0535216
   0.2380476  -1.6946707  -0.3108862  -0.0890083  -0.1357901  -0.1072940
  -0.9643928  -0.2268514   0.0529084  -0.8226228  -0.0786525  -0.7097991
   0.1395158  -0.0534990  -0.2475753   1.9796809   0.5245818  -1.3614175
  -0.6010968   1.3155922   1.2806182  -0.1576550   0.4987409   0.0174991
  -0.2420795   0.0276544   1.3447398   0.4466062   0.1510195   0.2947591
  -0.2175448  -0.1426630   0.3783029   1.3587472  -0.3648696   1.0312577
  -0.1515998   0.3033139   0.0790154  -0.0574755  -0.2406144   0.1127789
  -1.1743060  -1.5563689  -0.1731129   0.4945819   1.0182612   1.7010465
  -0.3216150   0.3368797  -0.1683512   0.4939501   1.1674626   0.5505778
   0.9099092  -0.2716439  -0.4120902  -0.3002183  -0.0735281  -0.0533023
   0.0208404   0.0969991  -0.4285002   0.5153351  -0.6970139   0.4436845
   0.0367709   0.1622734  -0.0593054   0.2983828   0.1094835  -1.1815472
  -1.3845085  -0.5475998   1.1450506  -0.4299594   0.3563488  -0.0238546
   0.6359820   0.8049948   1.4124888   0.9928751   0.4883816  -0.0726703
   0.2095801   0.3213873  -0.0575346   0.9218708   0.9122924   1.0782735
  -1.4194368   0.1028965   0.1288252   0.0261672   0.1970797  -0.0368051
   0.9965283   1.3099878  -0.9235920   0.9156605   1.2714040  -0.2127067
   0.0022356   0.1638204  -0.0313244  -1.3089831  -0.4739182   1.0744398
   0.0691460   0.3441657   0.4762459  -0.1278327   0.2644380  -0.1748189
  -0.0353091   0.4189271   0.0735481  -0.4735403  -0.7182085  -0.1006253
   0.1154872   0.2222289   0.0909189   0.1672793   0.3497385  -0.7879658
   0.6418435   0.8832287  -0.3518855   0.0535018   0.1519985  -0.0239881
  -0.6567863  -0.7938563   0.0151658   1.4372765  -0.9533973   0.0942133
  -0.1948177   0.0546734  -0.0890535  -0.1506214  -0.3842528   1.0062584
  -0.0720247  -0.4995011   0.7330216   0.2910732   0.1632256  -0.2278766
  -0.4245644  -0.4879769  -0.4169897  -0.3274677  -0.5620106   0.5649182
  -0.0853884  -0.0042590   0.0543087   0.8168722  -0.2678958  -1.0222107
  -0.0657478   0.9140188  -0.4333555  -0.0117225   0.3660750  -0.2072554
  -0.0080682  -0.3478149   0.1256999   0.1619673  -0.4797637   0.6131567
  -0.1361573   0.0209160   0.0397195  -1.8156339  -0.1941667   0.4908309
   1.5385739   0.2115664   0.2855130   0.0962345  -0.1330200  -0.0659125
  -1.2614993  -0.8748469   0.6972842   0.5799063   0.0204168   1.3381079
  -0.3582832  -0.0673100   0.1953104   0.1283183   1.4267224  -0.7171184
   1.2679900  -0.4503323  -1.1469206   0.1616940  -0.0156280   0.0281447
   0.1899854   1.8609781  -0.5266725   0.1545782  -0.7290084  -1.2845591
   0.1156307  -0.4112354   0.0742712  -0.1645422   0.1459803  -0.2305176
  -1.2022052   0.7562342   0.3257408  -0.2669045   0.1542646   0.0996287
  -0.0161663  -0.3101287   0.7014439   1.2511783   0.2860000  -0.7208242
  -0.0315893   0.1997552   0.1508029  -0.1635828   0.8601881  -1.2617179
   0.4495697   0.0100403  -0.4870821  -0.0509831   0.2264052  -0.3080964
   1.4286664   0.0451878  -0.5589901  -0.1227760   0.1986363  -0.5379064
   0.1310079   0.0501220   0.0856395   0.6028774  -1.0784507   0.6427324
  -0.4046185   0.1067891  -0.4370587   0.3796245   0.1328931  -0.0475073
  -1.1650765  -0.3098387  -0.7113023   1.4694016  -0.2020311   0.3199109
   0.4922763   0.1742734   0.0432133   1.4835327  -0.3958053   0.3374308
  -0.6636095   0.2170416   0.2704386   0.2167902   0.1055399   0.2216732
  -0.0986062   0.8712949   1.3120909   1.4850559  -0.5150725  -0.2362731
   0.2363237   0.0317165   0.4555234  -0.5027332  -0.0936129   0.4079802
  -0.5152647   0.9802733   1.1394960  -0.1550104  -0.2125543   0.6782181
   1.5351661   0.9547973  -0.8541132   0.0596109   0.5160883   0.0408677
   0.1618159   0.0936583   0.0010349  -1.0092750  -0.1281866  -0.0224597
   0.3523000   0.6015069   0.9182785  -0.1512837  -0.0248199  -0.2080722
   0.8409522   0.5831819  -0.8208121  -0.6125010   0.7734742   1.1454397
   0.2648492  -0.1235116   0.3120160   0.0192440   0.0293544   0.0428966
   0.5152773   0.2713161   0.4774444   0.0717803   0.0952044  -0.2639973
   0.9211837  -0.5250667   0.7630178   0.2730967   1.1259354   0.6156096
   0.1015729  -0.0038910  -0.5147735  -0.5979289  -0.7311300  -0.2629572
   0.5010711  -0.4814070  -1.1259372   0.1509182  -0.2880300  -0.0762396
   0.1652431   0.2024677  -1.7764071  -1.3145525  -0.7286790   0.1268268
   0.4368920   0.2409142  -0.1224930  -0.5612528  -0.1123422   0.3087038
  -0.1959384   0.9057716   1.4922805  -0.2602482  -0.3156123  -0.2000544
   0.0055085  -0.0701549  -1.7041973  -0.7450879  -0.3805543   0.5241294
   0.0859495   0.0398546   0.2170662  -0.2068156  -0.0508130   0.7248183
  -1.6017878  -0.2104661   0.5276613   0.0251107  -0.3507368   0.1172660
  -0.2846649  -1.0137470   0.0628076  -0.5978315  -0.1694528  -0.4742453
  -0.0091977  -0.1574414  -0.3966027  -0.1101366   0.3665404   0.3395950
  -1.6134837   0.3696604   0.3752979  -0.1301019   0.2392594   0.2239781
   0.4314656  -0.5716254  -2.0934098  -1.7596095   1.4564383  -0.8092523
   0.0958831  -0.0674657  -0.0306722   0.2338226  -0.2882462   0.7839541
  -0.4642837   1.4542178  -1.3116207  -0.1158597   0.0042267  -0.1204436
  -0.9472828   1.3564092   0.0762924   0.4744617  -0.0272917   0.0478797
   0.1078001  -0.1870205   0.0319490   0.6136778   0.2488914   0.3078752
  -0.5730120   0.5593770   0.2219830   0.3171387  -0.0456607   0.1736622
   0.7904171  -0.4009935  -0.2242200   1.1909568  -0.4276273   0.2778613
  -0.1033939  -0.2829957   0.0895719  -0.7271171   0.2672022   1.4975482
   0.3559647  -0.6089869   1.1890267   0.0403665  -0.0801616   0.0481734
   1.1008829   1.6146545  -1.1796691   0.4715375   0.7786300  -0.0910845
  -0.3310281   0.0815555  -0.2194783   0.1870180  -0.7334523  -0.3600574
   0.8132378   1.4690334  -0.4870249   0.3015502  -0.2171714   0.3446099
  -1.8634627  -0.2359658   1.3495048   0.1611585  -0.3462245   0.2605391
   0.1402758  -0.1567097  -0.1067305  -0.6726980   1.3807827  -0.4422532
  -1.2771008  -0.0899474   0.0480570  -0.2498485   0.0315260  -0.1122400
   0.9638375  -0.8906738   0.0654837  -1.5494087  -0.6013390  -0.5630634
   0.0679428  -0.2660153  -0.3046479  -0.3195616  -1.1670659  -0.5914400
  -0.4674651   0.3844595   0.0254271   0.3827046   0.4347810   0.3392401
   0.3656282  -1.5685321   0.3059704  -1.2423605   0.0928621   0.9618641
  -0.2560378   0.0014671  -0.1300100  -0.4573882  -0.1998844  -0.1859551
   1.1767290  -0.3604925  -0.2118851   0.0706420   0.3782471   0.0951252
   1.1719846   0.1387242  -1.7538816  -0.5804148   0.4887309   0.1575382
  -0.3933959   0.1348413   0.1243761   0.5227150   1.6334047  -1.7734406
  -0.1861729  -0.4073952  -0.3388392   0.0694457  -0.0525411  -0.1919182
  -0.8511322  -0.8131191  -0.3035705  -0.0672967  -1.7764736   0.4599623
   0.2328482   0.1954039   0.2468131  -0.2879798   1.2653179   0.3354794
  -1.4668468  -0.6536628   0.8086442   0.2017000   0.1479207  -0.0253761
   0.1269758   0.6110279   1.0227671  -0.3947548  -0.5198798  -1.2822489
  -0.0974627  -0.0110265  -0.3577794   0.9277253  -1.3489336   0.2393994
  -1.1232008  -0.6582869   1.2331007  -0.0753046   0.1320572   0.2378080
   0.8037250  -0.5589677   1.9392989   0.3436609   0.0899583   1.1830056
  -0.0716504  -0.1445555   0.2064761  -1.0172454   0.1195777   0.2339599
   1.8842256   0.3931715   1.0138074  -0.3332987  -0.0770072   0.0951459
  -0.4125990   0.3413327   0.1252875  -0.3325470  -0.6299829   0.1168536
  -0.0607603   0.1310126   0.1909855   0.2177459   1.0579073   0.0951795
  -0.2322717  -0.7343510  -0.0741110  -0.2208055  -0.0273400  -0.1443316
   0.9033921  -0.1531352   1.5096978  -0.7286271   0.2712768   0.9021384
   0.2256692   0.0259919  -0.2482905  -0.2889249   0.6771133  -0.4839463
   1.3020358  -0.1300597  -0.8462338  -0.2826290   0.2163695   0.1367791
   0.4361759  -0.8509741  -0.5114158   0.2731578   1.1211444   0.4319251
   0.0519644  -0.0997828  -0.0958791  -1.3904737  -0.0040228   0.0572937
  -0.4838664   0.3692209  -1.0766413  -0.0867338   0.3031333  -0.0582208
  -0.8679647  -0.2149016  -1.6019807  -0.4943259  -0.1106852  -0.1977254
   0.0983165   0.1940586  -0.0628785   0.6881266  -0.4691585  -0.0643228
   0.1161409  -0.6180855  -0.0025242   0.1043746  -0.3056458  -0.1692455
   0.3637383  -1.7330034   1.4664352   0.8072104  -0.5036998  -0.0442721
   0.0346613  -0.2137459   0.1749771  -0.6440385   0.3328075  -1.2964002
  -0.1761503  -0.7810035  -0.3375517  -0.0295415   0.0184814   0.0724887
   0.5159107   0.0029252   1.0875871   0.7933307   0.6440480  -0.1994645
   0.1042075  -0.0440018  -0.0956365  -0.1102907  -0.4865872   0.7558378
   0.4398851   1.9852520   0.8623205  -0.3771010   0.2894394   0.0438395
   0.0771943  -0.8887004   0.3413115   1.2102802  -0.3101484   0.5008138
  -0.0775030  -0.3312713  -0.0974594  -0.3812278   0.3272283   0.1538237
   0.4342380   1.0367565   0.8507816  -0.0240589  -0.4562903   0.2281187
   0.2336810  -0.3556423   0.2158150   0.1967099   0.9535618   0.0394734
   0.0218331  -0.2548073  -0.2529069   1.0160356  -0.7143353   0.4176053
  -0.9256722  -0.2515659  -0.6933530  -0.0264123   0.0393518  -0.0277445
  -0.9510544   0.0929470   0.9675292  -0.0563347  -0.6009424  -1.2538575
  -0.2024431   0.2974315  -0.3803634   0.5181341  -0.3393945   0.5275722
  -0.5322093   0.2870733   0.3564511  -0.2775258   0.2059594  -0.0521532
  -0.7537500  -0.3718523  -0.2324113   0.3402456   0.9853479   1.4212283
  -0.0005305  -0.0717482   0.1332589  -1.0214233   0.8380696  -0.1565844
   0.0569581  -0.4604141   0.2769673   0.0727946   0.0467218  -0.0389861
  -1.2160611  -0.1592168   0.4066741   1.2832311   0.1295541  -0.0180743
   0.2306680  -0.4708773  -0.1197633  -0.2694147  -1.0656061   0.1107851
  -0.5951529  -0.5397554  -0.3938876   0.0694001   0.0942277   0.2041142
   0.7011972  -1.2557349  -0.1032424  -3.2376955   0.4021938  -0.9035280
  -0.0718962  -0.0595391   0.1854622   0.5294200  -0.0307031  -0.3377276
  -0.2139593   1.6844717   0.1619913   0.0849075  -0.4014217   0.1970834
  -0.4697222  -0.6922156   1.4039189  -1.1299379  -0.3960969  -0.2034230
   0.1373716   0.0469994   0.1003862  -0.3216909   0.2172718  -0.1079515
   1.0099937  -1.3943001  -0.8242190   0.1062452  -0.3473823  -0.0927309
   1.0668564   0.1099408   0.2034547  -0.1921022   0.4815550  -0.9031726
   0.1495604   0.3215266  -0.0644337   1.3952245  -0.0899991   0.2188193
   0.4568567   0.7066025  -0.1511712  -0.2644528  -0.1456693  -0.2081493
  -0.8893803   1.1035329  -1.2988017  -1.5134017   1.6059967   0.7338054
  -0.1652769   0.2648671  -0.2749178   0.4936611  -2.2582154  -0.0161663
  -0.3595221  -0.9312767  -0.2966978  -0.1099954  -0.1099475   0.1914341
   0.6204482   0.0130992  -0.1006963  -0.5834534  -1.2562025  -0.8576164
   0.0012833  -0.2233498  -0.0359128   0.0732487  -0.4006659  -0.1409499
  -0.7635170  -0.0699413   0.4427226   0.1892935   0.1415424  -0.0653130
   0.3296054   0.0534834  -0.7528648  -0.1560971  -0.5664614   0.3203872
  -0.1339669   0.0882389  -0.0460306   0.9332534  -0.0930154  -0.1302469
   0.4168911   0.3272399  -0.4993528   0.1213517  -0.0508165   0.0883763
  -1.9187191   0.3505955  -1.5087888  -0.4636095  -0.5114497  -0.8042731
  -0.2402094   0.2442899  -0.0726174   0.3388720   0.9385650  -0.9392282
   0.4354261  -0.4434652  -0.9014155  -0.0247543  -0.0626972   0.3879521
  -0.2699254  -0.1919845   0.5178893   0.1193698   0.9741479   0.7456198
   0.2524551   0.1809208  -0.0973864   0.1929185   0.4872978  -0.9528853
   0.0002466  -0.6071997  -0.7101182  -0.0566900   0.2459673   0.2136972
   0.3482053   0.0954306   2.0106380   0.3535416  -0.2371143   0.1732069
  -0.1615035  -0.2746065  -0.1042618  -0.4820388   1.0040834  -0.4989314
   0.1428367  -0.3502316  -0.7347934   0.1057845  -0.2079168  -0.3529752
   0.1934041  -1.0160300   1.5149566   0.2073664   0.7054816  -0.3516197
   0.2683422  -0.0681043  -0.2971519   1.9175085  -0.2338616  -0.3216281
   0.6394787   0.4988593  -0.5313802  -0.1186864   0.0310412  -0.0745080
   0.1099892  -0.0347170   0.5706571  -0.3179324  -0.5341336   0.3735111
   0.1840075  -0.2799461  -0.1215746   1.4275213   1.7524172  -0.1448803
  -1.1757050   0.5590358   1.0222602   0.2993491   0.1137865  -0.0018729
   0.5782848  -1.4772844   0.6057656  -0.8022100  -0.5465102   0.7103955
   0.0792331   0.0394055  -0.0234640  -0.3976960  -0.1869636   0.0404522
  -0.3953369   0.2379725   0.7320323   0.1822201  -0.1063420   0.0472355
  -0.8751847   1.6581213   0.3114638  -0.7352761   0.0798042  -0.2887597
   0.1563169   0.3580469  -0.0680617   0.3912597  -0.1592670   1.0570208
  -0.7284431   0.0267097  -0.4222429  -0.0786254   0.0231274  -0.1600825
   0.3806414  -0.7216434   1.4100238  -0.3045750   0.0758657   0.5891017
   0.0145770  -0.0651197   0.0322205   0.9966363  -1.3125099  -0.5842811
  -1.3061621   0.3402191   0.4466446   0.2519523  -0.3342119   0.1297964
  -0.8066670  -0.8641926  -0.2552379  -0.4594795   0.3490136   0.4797547
  -0.3013376   0.4968196   0.0940693  -0.4271757   0.8769853  -0.6397682
  -0.1453589   0.9774492  -0.7091466   0.2410755  -0.0594033   0.0939590
  -0.0500593   1.6883754   0.1834621  -0.1856945   0.4712864  -0.7453700
   0.0576477   0.0016112   0.1607314   0.3522374  -0.8585683   0.2730220
   0.6639436   0.1162121   0.3628893   0.3186945  -0.1641115  -0.1463132
  -0.2570969  -0.3465534   1.4446632  -0.1738688   0.0330112  -1.8656371
   0.2226661  -0.0403860   0.1368608   1.3872578   0.1935532  -0.1449449
   1.0962172  -0.7832106   0.7443542  -0.2432574  -0.0660902  -0.4063141
   1.0847747   0.9882272  -0.1126430   0.2703602  -0.4952788   0.4830320
   0.1239499  -0.0654136   0.1134515   0.1222353  -0.0224736  -1.3524520
   0.3463053  -0.2581340  -0.4342448  -0.3993830   0.3083640   0.0735041
   0.4213796   0.1208805   0.2809135  -0.7316439   0.5629455   0.0838666
   0.0645896  -0.0234717  -0.0871320   0.3994379   0.9754755  -1.0169661
   0.9503111   0.6102307   1.0643827   0.0548419   0.0381580  -0.0139072
   0.2995389   0.1874879   0.2734516   1.0881729   0.1328165   1.4592049
  -0.1119825  -0.1586909   0.2906523   0.5813738   0.9231475  -0.0160684
  -0.4982077   1.0657055   0.4116575  -0.0274067   0.1707057   0.1298975
  -1.1873385  -0.4584629   0.6355625   0.5476648   0.2230787  -1.1839683
  -0.1372323  -0.0188056   0.1994858   1.1944470   0.7599639   0.8361833
  -0.0452320   0.7311029   0.5440744   0.1490722   0.0815258  -0.2328295
   0.6919976   0.6830173  -0.0521583  -1.6876904   0.0379797   0.6816570
  -0.4018750  -0.1368763   0.1248953  -1.5150938   0.6895384  -0.2961211
  -0.1417103   0.2857656   1.0330057   0.0431588   0.0709340  -0.3168056
   1.0534793  -0.1053969  -0.6112767   0.3764245   1.9390957   0.5679578
   0.0089619  -0.2447350  -0.0085098   1.0546855   0.1721385  -0.6760762
   0.2625556   0.3317755  -0.1017065   0.0779727  -0.0890790  -0.3380622
   0.5185544   0.0944488  -0.0878851  -0.6996533  -0.9135654  -0.5293611
  -0.1447508  -0.0909531   0.2001071   0.2944760   0.4168327  -0.2456696
   0.1712777   1.3536837  -0.1049220  -0.2727382  -0.0128482  -0.2496798
  -0.2174914   0.2069166  -1.3644812   0.0793306   1.2412937  -0.4017601
  -0.2162573  -0.1312196   0.2463293  -1.2833298  -0.1760502  -1.0946584
   1.9632959  -1.2383631  -0.9452835   0.1017246  -0.0515445   0.0060510
  -0.4021870   0.3651116   0.5136327  -0.5420460   0.8902502  -1.1939592
   0.2614726  -0.1235226  -0.1613132  -0.0316747  -0.8153766   0.2917780
   0.2032670  -0.3240707  -0.7295913   0.0836697  -0.0498792   0.2850462
   0.7531232  -0.6049697  -0.0723933  -1.7152489  -0.9642541   0.3380986
   0.0709198  -0.3836141  -0.0582862   0.6335844   0.7019086  -1.0764335
   0.4844898   0.8582544   0.4684732  -0.2177614  -0.0510941   0.1159020
  -0.0421664  -1.3309435   0.4528548  -0.6685373  -0.3111680  -0.3980181
   0.3940096   0.0323375   0.0679134   0.3732280   0.0630951  -0.6657147
   0.6795845  -0.1112741   1.5042130   0.0138771   0.2989927  -0.2671346
  -0.7608112  -0.6095574  -0.6986218   0.2313357   0.0923376  -1.5577052
  -0.0223342   0.3992749  -0.0488112   0.4227687  -1.3862380  -0.3646723
  -0.3292782   0.8356491   0.0372865   0.0418019   0.0205652   0.1571559
  -0.1738453   0.1573986  -2.1357446  -0.2816745   1.3068455   0.2008211
   0.1338171  -0.3885500   0.0817647   0.2931439   0.5937818  -0.2362145
  -0.9625440   1.3474700  -1.3687618  -0.1130021   0.0386137   0.1550159
  -0.1228368   1.1014781  -0.4817358  -1.2014788  -1.6634485   0.5624265
   0.1344609  -0.0001710  -0.0282799  -0.4182029   0.0435483  -0.9573214
  -0.1628197   0.1496619  -0.8359609  -0.1743541  -0.2621321   0.1986009
  -0.4042759  -1.1021525  -0.3096915  -0.7980498  -0.2365560   0.1128054
  -0.0659263   0.1097002  -0.1675287   0.2765636  -0.3583077  -0.0773890
  -0.3456323   0.8642792   2.5380373  -0.0655118   0.0472825  -0.0750681
   0.4741514   0.5325573  -1.2252406   1.1107308  -0.2443282   0.5512119
   0.2664044  -0.3449779   0.3435549  -0.0998074   0.3304331   0.6932573
  -0.0671166  -0.3381357  -0.3188687  -0.1675851   0.1189063   0.0674906
   0.8111872   0.8508277   0.7346817   0.6219410  -1.6825347  -0.0058365
  -0.0438830  -0.1528219   0.2030320   1.4253941  -1.4775099   0.8771403
  -0.7113118   0.5982752   0.0795977  -0.1899918  -0.1596118   0.3453869
  -0.5773214   0.9635078   0.4202653   0.8243546  -1.2896763  -0.0131917
   0.1516536   0.1255657   0.3020234  -0.0396165  -0.4236482  -0.0305559
  -0.1776953  -0.1411088  -0.0999438   0.1505735   0.2648047   0.2116147
  -0.7398553   0.2633891  -0.5595751  -0.5906184  -0.6583062  -1.2377983
  -0.1273093   0.0146139   0.0105497   0.3612750   0.3780376   1.7964947
  -0.4391084   0.0879427   0.4726690   0.0209225   0.3152405  -0.1024378
  -1.1851902   0.4016320   2.0061166  -0.2423187  -1.3712088  -1.0869789
   0.0608359   0.2545993  -0.2465360   0.8461031  -0.6275615   0.6678872
  -0.8762556  -0.7275794  -0.2595068   0.0043131   0.0840367  -0.0513169
   0.8897413  -0.5641329   0.7598922  -0.0670911  -0.7235792  -1.1233500
   0.0241238  -0.2895746   0.0749987   0.9355807   1.2473991   0.3193400
  -0.6772754   1.4638278   0.3859369   0.1819322  -0.4139774   0.1431248
  -0.4757202  -0.9901920  -0.3304629   0.2607648  -1.2068274   0.1771606
   0.2046459  -0.1254727  -0.0654564  -0.7923421  -1.7191322   0.4133259
  -0.5346128  -0.8031310  -0.4941697   0.1248942   0.2516751   0.0299600
  -1.1911435   0.1969788  -0.6763187   0.0666549  -0.7856888  -1.5504029
  -0.2688686  -0.1275328   0.1028873  -0.0421084  -1.4866978  -0.3931028
  -0.0138878   0.1993137   0.6049818  -0.0618860   0.1005926   0.3796346
  -0.0894446  -0.5983441   0.1262412   0.6107985   0.0074702   0.3433114
   0.2030694  -0.1666673   0.0870056   0.2976186  -0.8425399  -0.2912272
  -0.2372877  -0.4193353  -0.2035409   0.1147497  -0.1861245   0.0146808
  -1.2602159   0.1763661   0.8115584   1.4528061  -0.1371246   0.5654944
   0.1073036   0.2459217  -0.1466822  -0.1291695  -0.8705758   0.3319539
  -1.1283437  -0.1467463   1.0675503  -0.0474100   0.2697669   0.2086976
  -0.3398784   0.5744397  -0.2589559  -0.6433617   0.0755733  -0.1474692
   0.1007057  -0.0848216  -0.0031008  -0.1113190  -0.5359789  -0.0806209
  -0.4287646   0.0089732  -0.9227602  -0.0104950   0.1433246   0.2765855
   0.5133808   0.2324153  -0.1002429   0.6408140  -1.2265666  -0.9682192
  -0.2504117  -0.0137191  -0.3824003   0.5477492  -0.9842156  -1.3831273
  -0.3771630   0.2959585  -0.8482853   0.1255939  -0.0326006   0.0900951
  -0.1341068   0.4253751   1.0520120   1.2080253   0.4036673   0.6357144
   0.1857111   0.0415029  -0.3385538  -0.1162374   1.6543822   0.4844029
   1.0888685  -0.6846421   0.9126418  -0.1867499  -0.1422622  -0.0330617
   0.3879902  -0.3094855  -0.3619345  -0.7898750   1.0056809  -0.2388577
   0.1827205  -0.0345622  -0.2020118   1.3092690  -0.4670127  -0.4463897
   0.8655095   1.1525607  -1.1564534  -0.0553046   0.0226998   0.0630923
  -1.2918597   0.2374600   0.9022094  -0.9258772  -1.0945807   0.2633829
   0.1360802   0.0023178  -0.2776786   0.9582080   0.3168063   1.2065542
  -0.3502029  -0.0810033  -0.0426579  -0.0438688   0.0080666  -0.0519902
  -0.4260509   0.2561322   0.2284841  -0.9272587   1.4498258  -0.7194738
   0.2715998  -0.4996257   0.1721472   0.1458282  -0.5429305   0.9708230
   0.2375041   0.4122169  -1.4552753  -0.0908803  -0.1378829   0.0777929
   0.7657996  -0.8051354   0.1919629   1.0966492  -0.5551775  -0.3820145
  -0.3486723  -0.0441089  -0.3678234  -0.3680062  -0.5699670  -0.1809921
   0.7147927   0.4706966  -0.2092665  -0.0955034  -0.2437428  -0.0933274
   0.0861566  -1.4138324   0.5735353  -1.0335703  -0.5566726   0.2397123
   0.2232086   0.0666768  -0.1126910   1.4163176  -0.0825398   0.3955128
   0.3666038  -0.8810081  -0.6515176   0.0100977  -0.3661716  -0.0960001
   1.1029468   0.0797447   0.5387300  -0.4252600  -0.4798924  -0.1324152
  -0.0705406  -0.2906697   0.3089105   1.1707864   0.3894622   0.6180167
  -0.2287764   0.9863742   1.0237123   0.0113141   0.0087896  -0.0990809
  -1.0231224  -1.0301369   1.0665998  -0.2352193  -0.1254679   0.1186566
   0.0031976  -0.1382186   0.0761761  -0.5554015   1.8632003   1.3595288
  -0.7118098   0.2122648   0.4646283  -0.0626338  -0.1580303  -0.2969041
  -0.0829793  -0.9153597  -0.0789986   0.7274664  -0.0540638   1.2756788
  -0.2818183  -0.0277462  -0.4172661   0.0828941  -0.3832377  -0.4806673
  -1.5390437  -0.0326530   0.0443198   0.1887089   0.1365459   0.0950507
  -0.1008031  -0.8006719   0.4890805  -0.7155632  -0.9133932   1.4509277
   0.0124087  -0.1215141   0.1408880  -0.4589222  -0.7443087  -0.6472820
  -0.0427180   0.8970467   0.1024039  -0.2682636   0.0884538   0.0438141
  -0.5375271   0.9235417  -0.5145440  -0.7656578  -0.2523845   0.1467987
  -0.1717129  -0.0611560   0.1058164  -0.6140908   0.0648613   0.9767304
  -0.3005968  -0.5779424   0.3373950   0.0928359   0.1282767  -0.0724136
  -0.3119961  -0.3143099  -1.2843703  -0.0167340   0.9893477  -0.6919486
   0.2593413  -0.1660079   0.1115057  -0.1617737  -0.4523323   0.7308603
   0.2099949   1.5345805  -0.3902828  -0.1153638  -0.0585608  -0.0020870
   0.5097476   1.1312484   0.9466485  -0.0952878   0.2021837  -0.4489599
   0.0513497   0.2063575  -0.6484737   0.1264741   0.2514450   0.4146440
  -1.5333235   0.4011790  -0.6481373  -0.2334975  -0.2994494   0.0474460
   0.3896583   0.0677992  -0.4957963  -1.5949565   0.2668890  -1.0591856
   0.1824395   0.2590640  -0.1724885   0.9179509  -1.2545683   0.2792282
  -0.1350830   1.4417756  -0.1879035  -0.2033269   0.0945276  -0.3723072
   0.3404386  -0.4501952   1.2130879   0.3659522   0.9407391   1.3063097
  -0.0133974   0.2227957   0.1689110   1.0018057  -0.6858241  -0.9453743
  -0.8318901  -0.1074301  -0.5317332   0.3530550  -0.0932053   0.1210881
  -0.1024986   0.4818284   0.7093006   0.1119436   0.0668505  -0.1519195
  -0.1567887   0.0451573   0.0731390   0.8015085  -0.0946265   0.1064863
   0.7736089   0.8464969   0.0724721  -0.2423506  -0.0369497  -0.1551438
   0.3608552   1.3725843   0.0186002  -1.5394676   1.3452721  -0.3570113
  -0.0307633   0.0793478   0.1355430   1.2324233  -0.3880846  -0.5858000
  -0.0991121  -1.4441985   0.1856516  -0.3268792  -0.2015655   0.0296760
   0.8334836   0.5238311  -0.5749735   1.1879402   0.6511164   0.0729444
  -0.1161264  -0.1406956  -0.0714220   1.0898428   0.5890921  -0.2280722
   0.3438099  -0.5111394  -0.1064535  -0.4008561   0.0698560   0.0946485
  -1.1250507  -0.3227962   0.3831740  -0.3787443  -0.9372786  -0.0775783
   0.3576818  -0.1609427  -0.0264486  -0.6769127  -0.3226290   0.4431924
  -1.4625316  -0.2920856  -0.6224133   0.1764897   0.1051834   0.1919083
   0.6467724  -0.6405220   0.4102110  -0.1748475   0.6001681  -1.5216594
   0.0370438   0.3754637  -0.0175653  -2.5507708  -0.5775150   0.1394081
  -1.1770877  -0.2918340   0.4888304  -0.1320106   0.1888922  -0.2609032
   0.4163392  -0.0035332   0.2154894  -0.8991671  -1.5382025   0.3715256
  -0.1148908  -0.1419595   0.2167823  -0.1239489   0.8092562  -2.0429277
  -0.7488934   1.5517305   0.1011707   0.1095872  -0.0198930   0.0723584
   0.6240094  -0.0383271   0.6829630  -0.9492857   0.4671299   1.3237072
  -0.0657325   0.0039737   0.0754080  -0.4025244   0.2830092  -1.4120944
  -0.1799107  -0.1495786  -0.0317648   0.1463193   0.3990977   0.0686961
  -1.3805273   0.3497370  -0.5081550  -1.0651777  -0.2084724  -0.0978712
  -0.1296365   0.2613711  -0.1103646  -1.1920520   1.2441547  -0.0888828
  -0.4304127  -0.0127561  -1.0044419   0.0999030  -0.2274095  -0.2352912
   0.8032663   0.7219871   0.1530231   0.8932780  -0.0665031   0.0516298
   0.0711990  -0.0410090   0.0219064   0.0181877  -1.7860554  -1.0935172
   1.2121567   0.2584091   0.2263721   0.1579717  -0.2060803   0.1726267
  -0.5641352   0.2440863  -0.5142179   0.8231340  -0.8056014   0.6991361
   0.0624154  -0.1268014  -0.0840991   0.0336711   0.5629230  -1.5545911
   1.6258726   0.5182892   0.6993003  -0.3477131   0.1532311  -0.2508008
   0.6363918  -0.7563267  -1.1159182   0.2566991  -0.2127901  -0.4948598
   0.2027154   0.3861656   0.3289997   0.3845176  -0.2662020  -0.1586947
  -1.3686641   0.4464305  -1.2996519   0.3068565  -0.2688286   0.2338540
   0.1781920   0.0252526  -0.1932223   0.5029208  -0.0649676   0.0437319
  -0.0050151   0.2229168   0.1352901   0.3406714  -2.1107483  -0.4624302
  -0.6192657  -0.1796949  -0.9770092   0.0142540  -0.0531584  -0.0498468
   0.8491155  -0.3703994   0.6335244  -0.4447053  -0.4734899   0.1007228
   0.0145972  -0.3872865   0.1643306  -0.2179751  -0.1971323   1.0729841
   0.6026890  -1.4654114   0.3178084  -0.2286469   0.2603505   0.2127179
  -0.3128469  -0.8900976  -1.3192577   0.2041905   0.6150592  -0.5500993
   0.1070821   0.0209323   0.1820181   0.8521757   0.1279897  -1.7055482
  -0.3390936   0.8945669  -1.2329769   0.3566199   0.0962845  -0.1385204
   0.2554723  -0.2701115  -0.1079728  -0.7913145  -0.7023675  -1.4033990
   0.0628452   0.1886086   0.0541332   0.6321184   0.2040560  -0.1515269
  -0.5535638   0.6372682  -0.3078989   0.1148000  -0.1977845  -0.1124144
   0.8845075  -0.2095595  -0.2519044  -1.1526128   0.8183409   0.1915268
  -0.0736532   0.1322254   0.3047126   0.4740798   1.0451571   1.5550472
   1.0721107   1.2228833  -0.9988717  -0.2565965  -0.1749520  -0.0115781
   1.0148059  -0.7820478  -0.4273157   1.0919938   0.5569668  -0.3649508
   0.2300213  -0.2107235   0.1450382   0.4435605  -0.7289591  -0.3436388
   0.3166730   0.0678477  -0.6053797  -0.2515729   0.0385021   0.2965989
  -0.0619549  -2.0081105  -0.2697370  -0.5464368   0.8531669  -0.4900666
  -0.3174698   0.1956839   0.1640182   0.3627688  -1.0295210   0.4230335
  -0.0455323   2.1072986   0.4896624  -0.1565877  -0.0254303   0.0573288
  -0.3122971  -0.6954626   0.7614030  -1.0797870   0.2472973   0.4224197
  -0.2218336   0.0607807   0.1593671   1.2651440   0.3194140   0.1853851
   0.9459320  -0.9235815   0.4263463  -0.1231829  -0.0223880   0.0863747
   0.4799077   0.2077337  -0.2840125   0.5721833  -0.4800042  -0.5253768
  -0.2022727  -0.0419623   0.0711324   0.7311838   0.6406299  -0.4053815
  -0.9847412  -0.4860679  -0.3481420  -0.1582510   0.0616345   0.0915880
  -0.4939959  -0.8966496  -1.1481775   0.2925808  -0.1151754   0.1185012
   0.1371142  -0.2912744   0.0060293   0.5053571   0.7976332  -0.9142573
  -1.4516649  -0.3651167  -1.3312532   0.2801068   0.2510121   0.2275626
   0.8856480   1.2769735  -1.5166910  -0.3781585  -0.0833292   0.4772304
  -0.1220137  -0.5824736  -0.0179247  -0.3848856   0.4095412  -0.1913889
  -0.0780177  -0.4282299   0.0976700   0.3682202  -0.1581943   0.0719101
   1.9128027  -0.1594829  -0.2148775   0.0198621  -0.6031616  -0.9713276
  -0.3643876   0.1136647   0.3796005   0.7386301   0.4833553  -0.4731534
  -1.6308763  -2.1672361  -1.0243737  -0.2684967  -0.2338904  -0.0406935
   0.5881905  -0.1520937  -0.6610069   0.2917686   0.7147396  -0.7796166
   0.2925784  -0.0982698   0.0360086  -0.0724567  -0.5462673  -0.2878932
  -0.1377747  -1.3665706   0.9997498   0.0428808  -0.4894124   0.0850478
  -0.3979632   0.7485884   1.1864904   0.5436279  -0.7971976  -0.6817164
  -0.2356293   0.0501521  -0.1275565   0.0320736  -0.7599973   0.7695466
  -0.7151074  -0.4997947   0.0613337   0.2668070  -0.0119386  -0.0381953
  -0.2489738  -0.3291523  -0.9467797  -0.0400361   0.1626692   0.1938756
   0.4206409   0.0719026   0.3192487  -0.4148536   0.3925402   0.4058897
  -0.3082989   0.3762573  -0.9976882  -0.1531427   0.1822701  -0.2973011
  -1.7312727  -0.5169685  -0.0173470   0.4795355   0.3541144  -0.4479422
   0.0142628   0.0674803  -0.2428250  -0.2851871  -0.7728190  -0.8392466
   0.4811861  -0.9183336  -0.6480176   0.3690101   0.1592400  -0.0237917
  -1.9552761  -1.0420811   0.6449068   0.4938804   0.1466820  -0.9126645
   0.4641388   0.2699793  -0.0203687  -0.2506131  -0.4695886   0.4763818
   0.0857940  -0.5366039  -1.8100449  -0.0169804  -0.1201828  -0.1878700
  -0.7815467  -1.5492522   1.6936753  -0.4180164   0.5177621  -0.2250044
  -0.0900120  -0.2691561  -0.0624647   0.6847240   0.8910440   0.8324693
  -0.2897031  -0.5198464  -0.3991812   0.3452931  -0.2642620  -0.4585782
  -0.8600583  -0.5061924   0.0161345  -1.5172955   1.3108974   0.0181414
   0.0517697   0.3323326  -0.1328142  -0.1355811  -0.4181911   0.3352971
  -0.1964603  -1.7630612   0.4631198  -0.1660708  -0.2900238  -0.5023347
  -0.0059051   0.1886802   1.1521744  -0.8287527   0.0914999  -1.6093112
   0.0210005  -0.5120084   0.0098882   0.6263974  -0.1763354  -0.3956054
   0.8000984   0.7479568  -0.8846230  -0.0880012  -0.0190477   0.3390556
   0.5446957   0.7085503   1.2616906  -0.3035486  -0.4059080   1.2005399
   0.2253384  -0.2353558   0.1404319  -0.9753621  -0.1842529   0.2850729
  -0.5492459   0.6897864   0.0238334   0.2510665   0.3212253   0.1165796
   2.5814581   0.7699247   0.6955490   0.6779730   0.7925337   0.4750311
  -0.3242150   0.0021777  -0.0428169  -0.7766090   1.0526098   0.0160500
   1.3419508  -1.0521445   0.2710000  -0.1942487  -0.0126503   0.1920606
   1.7322133  -0.6064047   0.9266125  -0.9095948  -0.0691554   1.3480986
   0.0751493   0.1929350  -0.3711574  -0.9460075  -0.1447673   0.9868233
  -1.5073266  -0.2073602  -1.0167921   0.1070550  -0.4987419  -0.1136342
   0.8562789  -0.0716115  -0.4046549   1.7743798   1.1124209  -0.5850641
  -0.0097383   0.0847061  -0.1560178   0.3415638   0.2984390   0.1808446
  -0.1758946   0.0450175  -0.8666185   0.0578673  -0.3114115   0.0079153
   0.4071147   0.2776884   0.0774352   1.8184937  -0.4028018   0.0505546
   0.4064959  -0.2865390  -0.1950458  -0.7441192   0.4405089   0.4288110
   0.3929327  -0.2793788  -0.0742681  -0.1204388   0.0591785  -0.4839699
   0.6924337   0.9331437   0.3472937   1.1434689   0.8946206   1.0580904
  -0.1405589  -0.0092299  -0.1305400   0.3219933   0.3658330  -0.1890895
  -0.6807172  -0.2227943   0.8649447   0.1547151   0.0081796   0.0036190
   1.3821878   0.4586565  -0.4810205  -0.1242595  -0.5949025   0.8873452
   0.0769067  -0.2563510  -0.3184666  -0.4315857   0.0266687  -1.5684205
  -0.3319042   0.9818100   0.3308828   0.0933718  -0.2581018  -0.3078136
  -0.0255600  -1.4637123   0.2055729  -1.1329432  -0.4762597   0.2116207
  -0.0499509   0.0178638   0.0715640  -1.7364503   0.9036682  -0.7053013
   1.2041935  -1.6060266   0.1214191  -0.4072803   0.0297385  -0.1470344
   0.0609888   1.1571016  -0.5211191  -0.1655575   1.3671837   0.5337592
   0.0873494  -0.1167742   0.1005077  -0.0368378   0.0868967   0.7153992
   0.0148574   1.4286973   0.9357655   0.2276172  -0.1136832   0.1138233
  -1.2450005  -0.1034527   0.3322625  -1.5906760   0.8595014  -0.0655387
   0.2948600  -0.0362097   0.3856194   0.4308565  -0.6832457  -0.2277642
   0.0051424  -0.8454277   0.1621552  -0.1104114  -0.0491809  -0.0181052
   0.7976442  -0.5058011   1.5716289   0.0085279   0.3601634  -0.8901560
   0.0170059  -0.1359939  -0.0004095  -0.6959779  -0.7850348  -1.4713914
   0.0047500  -0.4648817   0.9819071  -0.3257943  -0.2909600  -0.1394664
  -1.2550189  -1.3807750  -0.7845215   0.1820270   0.7909122   1.0519160
  -0.0492492  -0.0405389   0.4913277   0.1640244  -1.9601277   1.9978447
   1.4648044   0.9815036  -0.1954870   0.1726437   0.0256954  -0.0744263
  -0.3481373  -0.2895042  -1.1305203   1.1055892  -0.7160113  -0.6437159
   0.0150732  -0.1176936  -0.2095075   0.9547235  -0.6245989  -1.1694703
  -0.8013263  -0.0859547  -0.9478490   0.0163317  -0.0458440   0.0835109
  -0.2381327   0.2271646   1.1051989  -0.8614578  -1.1124299  -0.0907492
  -0.0571605   0.1098559  -0.1595960   0.2282140  -1.1198193  -0.4438891
   0.5742620  -0.3511536   1.3216567   0.1300372   0.4959982   0.0260866
   0.5736868   1.5455480   0.8430346  -0.1271798   0.3777368  -0.2714933
   0.1563569   0.2728467  -0.1786111   0.2466578   0.4051224  -1.1218284
  -0.5565110   2.1434143   0.8963311   0.2153430   0.0853508  -0.0068109
  -0.5033927  -0.2306459  -1.1122711  -0.9413832  -0.6009012   0.5975865
  -0.0772565   0.4707868  -0.3838388  -0.3969117   1.2611848   0.1210457
   1.8610473  -0.9123075   0.7554870  -0.1320369   0.1111183   0.1464352
  -0.4572399   0.0479909  -1.7389059   1.3469019  -1.3007454   0.7694776
   0.0469660  -0.2497052  -0.3283206   0.3333027   0.1113053   0.5833684
  -0.3584492   1.2226444   0.9401947   0.3129835  -0.0105175   0.2472046
   0.8724066  -0.9412854  -0.4007803  -0.9325938   0.1517207   0.6734753
   0.3283977   0.2534441  -0.0820387   0.8727681  -1.1649034   2.0646534
   0.2820655  -0.3311163  -1.1402634  -0.0831663  -0.0600881  -0.0440555
  -0.6450431   0.4946316  -0.4630764  -0.6760117   0.2629587  -0.1561996
  -0.0643554  -0.1885837   0.1812549   0.2208518  -0.8138311   0.1222444
  -0.2709318  -1.3425078  -0.7435037   0.0484224  -0.0039858  -0.1028927
  -0.0714888   0.5019907  -0.7631268  -0.5428293   1.9406320  -0.2849667
  -0.3545399   0.4016815  -0.1612088   1.1186258  -0.1922920   0.0634220
   0.9926688  -0.1413367   0.5888885  -0.1243217  -0.0595221   0.0199640
   0.0134246  -0.4483679  -0.0374535   0.7492335  -0.6475171  -1.1849217
  -0.1966375   0.0307936  -0.1662383  -0.8187355  -0.9057201   0.5760722
   0.2160439  -0.2701840  -0.7258779  -0.0352873  -0.1950568   0.2558909
  -0.1052027   0.0149822   1.5444672   0.6924499   0.3103682  -0.8246636
   0.1659705  -0.2759994  -0.1919260   1.4949179  -0.1653094   0.0303364
  -0.3723510   0.4209557  -1.4705539  -0.1195365   0.0060105   0.0585214
   0.7379109  -0.1109483   2.0460546  -0.4999445   0.8476982   0.3452384
  -0.1408758   0.0123820   0.1970121   0.5907996  -0.3370437   0.5645797
  -0.7886656  -0.8211250   0.6409520   0.2617012   0.0093354  -0.2761984
   0.6850394  -0.2573357   0.2702788   0.9733198   0.7098521   2.0640230
   0.1713644  -0.1520684  -0.2158006   0.9198962   0.4087767  -0.2820852
   0.6964421  -0.9232345  -0.2139407  -0.0003793   0.3126714   0.1182335
  -0.6767955  -0.9024929   0.5936186  -0.9055952   0.7545946  -0.0635554
  -0.3698417  -0.3737321   0.0691467  -0.4429989  -0.1624945  -0.2312763
   0.0702649   1.0116223  -1.0400053   0.3050694   0.0402513   0.2754987
  -1.2318132  -0.4519773  -0.2353864  -0.1683784   0.1865548   0.1123203
   0.4223208  -0.2896064  -0.2443981   0.0644172  -0.4310886   0.5054705
  -0.5741642   0.7205667   0.4278379  -0.1371970   0.2590652   0.0402134
   1.0039910  -0.8011689  -0.4709722  -0.1968185   0.5778580  -0.5721256
  -0.0854191  -0.0574543  -0.0567864  -0.3139952   0.2378451   0.5726642
   0.3185450  -0.1318096  -0.9957029  -0.0970190   0.2239544   0.1131441
  -0.1322460  -0.5563719  -1.3862973   0.3968895  -0.7131580   0.1948354
  -0.0414337   0.3211937  -0.0050184   0.0719617  -0.6672223   0.8048918
   0.2026856  -0.5776246   1.1900287   0.1588843   0.0941291  -0.1212331
   0.3021655  -0.0246771   0.3189750   0.6055533  -1.1436379   0.0461247
   0.0606320   0.2159364   0.0840706   1.7922440   0.6028334  -1.3601930
  -0.6802673   0.4240915   0.0796105  -0.4025084   0.1750542   0.0922741
  -1.6794480   0.0216608   0.0190131   0.8585824  -0.3266554  -0.3413832
  -0.4033738   0.0636025  -0.1543102  -0.3309734   0.5197576  -0.3294904
  -0.0636873  -0.2535801   0.3433828  -0.0227818  -0.2417274  -0.2866868
  -0.8795450  -0.1379877  -0.0221270   0.7853783  -0.2076570   0.0765005
   0.1149192   0.0660148   0.0181335   0.5839342   0.9467287  -0.4521214
  -0.9038055  -0.7013577  -0.8203450   0.2191087   0.2065183   0.0656189
  -0.4973777  -0.4830095  -0.1398425   0.6027172   0.0757878  -0.0599399
   0.0158517   0.0031827  -0.2844008   0.9844741   1.1763768   0.4904252
  -0.5092930   0.8115824  -0.7974758  -0.0330525  -0.0771384  -0.4003260
   0.6642066   0.4112363   0.5937182   0.8506550   0.3870246   0.8830206
  -0.1704324   0.0414198   0.1522398   0.2439580   0.7618986   0.2903147
   0.0240420   0.5059006  -0.8919711  -0.1131505   0.2097564   0.2472742
  -0.7845650  -0.3007521   1.2575303   1.2749896  -0.9892114   1.2009734
  -0.1045300  -0.0732261  -0.3551788  -0.9519625  -0.4349666  -0.2978220
   0.4784394  -0.5259293   0.7420749  -0.2094315  -0.1855338   0.1638901
   1.2555149   0.3695047  -0.0166339   0.0147695   0.6536261   0.2334045
   0.0412549  -0.1802417   0.2666686   0.6680706  -0.8369462   1.6901792
   0.1225224   1.4064351  -0.3317268  -0.1310115   0.1974673  -0.2277521
   0.4032170   1.0411386   0.3810367   0.5155839  -1.3715066   0.4836410
   0.0412848  -0.1634309   0.0714802   0.8073407  -0.4963210   0.2524556
   1.3659351  -0.4849363  -0.8878049  -0.0227862  -0.1500856   0.0225599
   0.1697066  -0.4440693   0.7687647  -0.9669484   0.2733325   1.3359450
  -0.0646208  -0.1780273  -0.2883037  -0.3754086  -1.4275671  -0.4447595
  -0.5916940  -1.3227952  -0.0636614  -0.0765932   0.0719317  -0.2289941
  -0.0381627   0.3211643  -0.4955638  -0.4657715  -1.0082942   0.2104101
   0.1475555   0.0380093   0.2834199   0.0731506  -0.1791973   0.3144144
  -0.3458055   0.4637088   0.6075726  -0.1793984   0.1877572   0.3104929
   0.5097198   0.3499502  -0.7794219   0.0105302  -0.7951115  -1.6946340
   0.0740888  -0.0819866   0.3048917   1.2530154   0.9586425  -0.9587590
   0.6076183  -0.5329458   0.7731283   0.1342016   0.2710232   0.2744266
  -0.4056666   0.1627139   0.5112059   0.6134459   0.3770464  -1.0475693
   0.1763261  -0.0253619  -0.0136778  -0.6852494   0.2853826   0.9222540
   0.1591834   0.0738696  -0.7316551   0.2909890   0.1183734  -0.0364735
  -1.0262649  -0.7757903   0.4329778   0.3284424  -0.3766470   0.2178481
  -0.1427114   0.2163122  -0.0530181   0.0810572  -0.8102762   0.2114978
  -0.2364519  -0.3321487   0.5759974  -0.0801999   0.2262147   0.0364533
   0.2869806  -0.4665559   1.5212313  -0.0709021   0.8302791  -1.9350405
  -0.1511677   0.3198079   0.0957634   0.2117606   0.8160999   0.4711965
   1.2104363   0.8246974   0.0833447   0.2099029  -0.2378712  -0.0756751
  -1.0243677  -0.4394291   0.9900612   0.0712418   0.4442605   0.2338484
  -0.5301142   0.0182551   0.1983550   0.0067024   0.6980622  -0.6160576
   0.6861355  -1.3864040   1.1880467   0.0659792  -0.3143827  -0.2792926
   0.1973180   0.3581714  -0.8697519  -0.3219580  -1.3826349  -0.0658997
  -0.0741449  -0.1146154  -0.0498306  -0.8563612   0.9128228  -1.5897349
  -0.6527613   0.1728615  -0.8461139   0.0456351  -0.1307492   0.1524453
   0.4781249  -0.7255601   0.7197027   0.2230676   0.6098512   1.8748283
   0.0321797  -0.0563564   0.1283419  -0.2136680  -0.3362397   0.5423945
  -0.4476724   1.8523285  -0.8986403   0.1401134  -0.0493379   0.0970623
   0.7447610  -0.3177148   0.0373947   1.1480252   0.6644985  -0.0703314
   0.1869467   0.1386190  -0.3698829  -0.8878213  -0.0196433  -1.2466409
   0.7808550  -0.9774225   0.5147315   0.2655151   0.0318314  -0.3692685
  -0.1640034  -0.0061133   0.5828352   1.9213574   0.3140768   1.0170993
   0.2073743  -0.1606393  -0.2002717   0.7484858  -0.2738666  -0.0781248
  -1.1624100   1.3195434   0.9794287  -0.4249652   0.2452679   0.1090296
   0.7300040   0.4494095  -0.3182595  -1.2958635  -0.0122269  -0.3667811
  -0.4659888   0.0189546  -0.2969324  -0.7657509  -0.0097318  -0.4157208
   2.3926105  -0.1566785   0.1705767   0.0843370  -0.0690306   0.1252067
  -0.3965645  -0.4988356  -0.2226768   0.4430467   0.1581423   0.8385857
   0.0248727   0.0032469  -0.0707665   0.3016949  -0.2836650  -1.0457667
  -0.1324485   0.6157585   0.2308257  -0.3034546   0.2805016  -0.3158327
   0.2040792  -0.2064119   1.3628331   0.1965591  -0.6411690   0.8312114
  -0.0817032  -0.1786734   0.0645861  -0.8770768  -0.4638008  -0.4091335
   0.7868341   0.1694981   1.8110303   0.0609558   0.4374743  -0.0122273
  -0.7233248   1.0597994  -2.4814796   1.0153087   0.4711210  -0.8605235
   0.0591066   0.1573593   0.2417760   0.0402949   0.4973216   0.1834588
  -1.2403680  -0.1748304  -0.3332955   0.0788847   0.0600706  -0.2027105
   0.7848238   1.0189973   0.7716091   1.9891590   0.0890763  -1.2049177
   0.1078992   0.5165793  -0.0618711  -1.1815566  -0.8484810  -0.4113649
  -0.0633395   0.1803326  -0.0444037  -0.1915655  -0.3004090  -0.1160822
   0.4160247  -0.0147717  -0.7220184  -0.5854248   0.1806754   1.0152857
  -0.0358470   0.3673631   0.0002205  -0.7122532   0.1474010  -0.2187650
  -0.4562620  -0.7698767  -0.2713116  -0.0726323   0.1166693  -0.1387612
  -0.2774801   0.1551250  -0.9185157  -0.0834416  -0.1748379  -0.2658584
  -0.2397216   0.0314205  -0.3976406   1.2817850  -0.1409106   1.0481970
  -0.2360089  -0.0166433   0.7927680   0.3134164   0.0214550   0.0504824
  -1.5161049  -1.3364968   0.4850485  -0.1891520  -0.1365339  -0.4777233
  -0.2271200   0.0214501  -0.0719044  -0.5256785  -1.0671233   0.1865381
  -0.3577992  -0.7153043  -0.1294188  -0.0308051   0.0741533   0.2145570
   0.3291419   0.6292156   0.5873471   0.2715828   0.0786726  -0.5978259
  -0.0455349  -0.0903235   0.1235132   0.2248091   1.0643688   0.4775988
   1.1388980  -0.2558596  -0.5014642   0.2548003  -0.0884736   0.2050201
  -0.0219498   2.1367917   0.3708818  -0.2533000   0.0232782   0.0552048
   0.0441642  -0.2923008   0.0273277  -0.8856839  -0.1535314  -1.4227057
   0.7536076   0.3393757  -1.5832402  -0.4447777  -0.1775469   0.0978880
   0.1136171   0.5100891   0.9187207   0.2269205  -0.8787259   0.7265102
  -0.2279888   0.0526240   0.1042917   0.1238878   0.8485960  -0.0908371
  -0.5278009  -0.3691945  -0.9892063  -0.1382705   0.1880456   0.2123101
   0.3598945   0.4379751   1.7904118   0.1122325  -0.3572161   1.5665097
   0.0150002  -0.1347924   0.1368204  -0.9011479  -0.5368788  -0.8078998
  -0.6996362   0.9287427  -0.3623050   0.2415375   0.1948492   0.0522637
  -0.5626770  -0.6860419  -0.4501321  -1.0548892  -0.8403225  -0.5281240
   0.3705957  -0.1378028   0.0799107  -0.3478724   0.0042515  -0.3638817
   0.0778185   0.0101686  -0.6129952   0.0782996  -0.1749863  -0.0427338
   0.6728991  -1.1948951   0.4096789  -0.2978746  -0.1686204  -0.5154284
  -0.3128181  -0.0054347   0.0056208  -0.3393765   0.4829847  -1.9907027
  -1.6252580   1.3693247  -0.8680975  -0.0349890   0.4756063  -0.1359568
  -1.4118741   0.4037080  -0.8046584   0.8709245   0.0868216   0.0141943
   0.0547687   0.1583301   0.0928158   0.1929882  -0.2623356   0.5266653
  -1.0719839  -0.2216392  -1.0855186   0.0067379   0.3719447  -0.2620479
  -0.9464015  -0.1164024  -0.2434475  -0.1171236   1.2853146   1.5925930
   0.3535983   0.0087524   0.0550106   0.4429246  -1.2257295   0.2498594
  -0.2240095   0.4329051  -0.6085474  -0.1728419  -0.1812257  -0.0898131
  -1.1422291  -0.5951560   0.6114328   1.7434704  -1.0275916   0.3668135
   0.0239162   0.0946609  -0.0627197  -0.0675714  -1.0684267   0.2154087
   0.0526468   0.5564583   0.1148821   0.1728996  -0.1755494   0.0107412
  -0.2150589  -1.0674354   1.2145318   0.3904234  -0.4904223  -0.0673117
   0.0637688   0.1454839   0.3242105  -1.1089169  -0.4522950   1.0088060
   0.4178848  -0.5252454  -0.3159542   0.3070559  -0.0177746  -0.0300622
  -0.0438304  -0.2194063   0.1452070  -0.2150619  -0.5406378  -0.0157111
  -0.3009079   0.0725225  -0.2200407  -1.2198690   0.4510292  -1.4231836
  -0.3906052  -0.2862337  -2.8035116   0.1975045  -0.1410286  -0.0076449
   0.6439869   0.9021410  -0.5044935   0.1695369   1.6745477  -1.3535582
   0.0920202  -0.0280612  -0.1813143   0.1404438   0.7764830  -0.1684634
   0.0202060   0.0921889   0.1987290  -0.3955616  -0.0046278   0.0040187
   0.3558986   1.5265965  -0.0603053  -0.1845317   0.5112801   0.8395576
   0.0160363  -0.0259540  -0.0513773  -0.8715195  -0.8562386  -0.0945243
  -0.6060731  -0.8708907   0.9546143  -0.2142499   0.1626962  -0.0241372
   0.9233406   0.5553354   0.5005756   0.5301538  -1.0457625  -0.4771429
   0.5157051   0.0823122   0.5143666   0.0811535  -0.5797307  -0.0555342
  -1.0061300   0.6414404   0.8547574  -0.1476329  -0.0440550   0.2950832
   1.4818015  -0.0963196   0.1323401   0.6383212   0.6096503   0.2278964
  -0.1326361  -0.1412263  -0.1795704  -0.4001645   0.1266200   0.0664778
   1.0372909   1.4379783  -0.3065948  -0.3177290   0.1059372  -0.0434057
  -1.2079943   0.5838480   0.8023292   0.0882441  -0.0054858  -1.1603192
   0.1929570  -0.1458270   0.0266372  -2.2203388  -0.3711026  -0.2991009
   0.4293152  -0.7397135  -0.3071208  -0.0661326   0.1309469   0.0484290
   0.1711216   0.1965471  -0.3540294   1.1644391  -0.7179747  -0.4545502
   0.3862504  -0.1118966   0.1129309  -0.3282046  -1.0047055   0.5635568
  -2.3349006  -0.1279652   0.1705372  -0.1925738  -0.2450860  -0.1856581
  -0.5428690   0.8066770   0.3432944   0.4419305  -0.4571232  -0.6470836
  -0.0502080   0.2196380  -0.0797260  -1.4993875   0.9416151   0.4584166
  -0.4250866  -0.4353799  -0.0699248  -0.0946350   0.2426189   0.0421276
  -1.4407773  -0.6888094  -0.4591554  -0.2581582  -0.5389351   0.8853571
  -0.1662013   0.0073170  -0.1577175  -1.8810885  -0.4246166   0.6594844
   0.2690655  -0.9421362   1.6123707   0.1294181   0.0509845  -0.1012772
  -0.2204777   0.4441193   0.2145612   0.6657374   0.8525964  -0.8699920
   0.0181256   0.1768196  -0.0375056   0.7259953   1.4727572  -0.4777020
  -0.5644626  -1.8626760  -0.5931661  -0.0045426   0.1207807   0.1347767
  -0.8858110   0.0747281  -0.0248760  -0.1691975  -0.3837884   1.7618452
  -0.0039739  -0.0986829   0.0462533  -0.3942631  -0.6137609   0.8321521
   1.0453525   1.5248986  -0.6110166   0.0823741   0.0304214   0.0926847
   0.7684383   0.1369755   1.2299501  -0.1168652  -1.1944450  -1.0104704
   0.0245537  -0.0553849   0.2285902  -0.9278244   1.3311158  -0.5146300
  -1.4874703  -0.4030715   0.4283994  -0.0559180  -0.0441160   0.2459591
  -0.4339788  -0.1089505  -1.1445380   1.6438912  -0.0295799   1.3747636
  -0.1117632   0.0306359   0.0922533   0.2487074   0.3435430   0.9290676
   0.1242318   2.3555532   1.0106636  -0.0017104  -0.2322235  -0.2548131
  -0.4942847   0.4999104  -0.0198896  -0.3002337   0.3981769   0.1216768
  -0.1068858  -0.3171129   0.1229497  -0.9178621   0.5954932  -1.4548594
   0.0038635  -0.6800262  -0.9176646   0.0272536   0.1004685   0.0801902
   0.4319785   0.3193580   1.1893632   0.3195725   0.3001864   0.0568256
   0.2372850   0.0410665  -0.0689317   1.8700854  -0.1060110  -0.9306333
  -0.4813975  -0.3101794  -0.3556381   0.1198660   0.4414183  -0.0192044
   0.1738688  -0.0579205  -1.0069472  -0.2304625   0.5364249  -1.8294501
  -0.2519224   0.0098287   0.0152445   0.7855319   0.6548952   0.1019371
  -1.3824744  -0.1057990   0.6656648   0.1706403  -0.0169463  -0.2192021
   0.7435430   1.0140148  -0.6805916  -0.5308712  -1.1001714   0.0476385
   0.2436534   0.5261971   0.3442981  -2.1736925  -0.9655936  -0.5555235
   0.7587426   1.5446929  -0.0953998  -0.1251956   0.0887833   0.1493219
  -0.9197781   0.4063513   0.6739290  -0.4716385   0.7477476  -0.6333248
   0.1331215   0.0879631  -0.0459278   0.1271356   0.4292749  -0.0812269
   0.3379391   0.1150437  -1.2800977   0.0118914  -0.1228688   0.0065523
   0.4573588   0.2653984   0.1894631  -0.3528739   0.2254020   0.1248355
  -0.4506461   0.0480717  -0.1843621  -0.2439401   1.1749834  -0.3504757
  -0.0812702   1.2426953  -0.4160697   0.0634959  -0.2197697  -0.4843819
   0.4708889  -0.3763948  -0.1831183   1.3935996   0.1976833  -0.4968573
   0.0579170   0.1965582   0.2199174   0.5800486  -0.1737959  -0.0239877
   0.0142804   0.2831571   2.5561233  -0.3342889  -0.3407120  -0.2266619
  -1.1748385   0.1041627  -0.0756697   0.2124319  -0.5827548  -0.7578211
  -0.0222289  -0.3766311   0.1937320   0.1848469   1.7147074  -0.6487181
   0.1275287   1.4743258  -0.7276046  -0.0447559   0.0371197   0.0758666
  -1.3686600   0.0883752   0.1567017   0.1445985  -0.9153806  -0.1974723
  -0.0853395  -0.0462235  -0.1037457   1.4741215   0.3329170   0.4289873
  -1.4075153   1.0319443   0.5455800  -0.0012938   0.3372875  -0.0569157
  -0.3729068  -0.2429435  -0.1757921   0.1496794   0.8178048  -0.2077218
  -0.1430616   0.1295702  -0.1230513  -0.7012055  -0.4570726   1.6107572
   1.1432847  -0.1158489   0.7998837   0.0367647  -0.0083661   0.0655164
  -0.1161926  -0.3829908   1.0973700  -0.1273463   0.0703006  -0.2292174
   0.0685025  -0.1932502  -0.0175707   1.1989772  -0.1043320   0.0735261
  -0.0957118  -0.4087299   1.6507163   0.1170190  -0.0335558  -0.0137564
  -0.6750821  -0.7238855   0.0776917   0.2946510   0.9653156   0.2776932
  -0.1841498   0.2064031   0.0017605  -0.6593699  -0.4093221   0.7830743
  -1.2549328  -0.1477639   0.1887523   0.0184389   0.0091834  -0.1543238
   1.0293920  -0.6347678  -0.4238276  -0.2501184   0.1412075   0.9379944
  -0.2946501   0.1253899   0.0393257  -0.7370270   0.2462343  -0.1203232
  -0.1454949   0.2718707   0.0536759  -0.1181859  -0.4467471  -0.0481636
   1.2322036   0.4679216  -1.0629746   0.1970083  -1.6839563   0.0201863
   0.1073009  -0.1375136  -0.1361627  -0.8042178   0.0513982  -0.1053302
  -0.5634074   0.1690098  -0.0446714   0.3241818  -0.3767492   0.1704653
   1.2067951   0.2931758  -1.3164986  -0.8275427   0.1972672  -0.5312619
   0.2101866  -0.2014426  -0.2067419   1.3256284  -0.4431567   0.8534908
  -0.1984929  -0.1454855  -0.5886433   0.0058614   0.0586522  -0.3520318
   0.4249198  -0.4636699   0.2542037   1.6356062  -0.2508951   1.0467478
   0.3656521   0.3210382   0.0567484   0.0202165   0.3385812  -0.1439911
   0.6562610  -0.3061210   0.2055886   0.0428478   0.1399502  -0.0271470
  -0.9437406   0.3578394  -1.2063292   0.6724156  -1.1896430   0.6086832
   0.1135086  -0.0241883   0.1253927   0.6302876  -0.0242754   1.8794369
   0.0009099   0.4344474  -0.6417155   0.0464393   0.0074147   0.3342809
   0.5706975   0.1698790  -0.2504410   0.4061681   0.7671120  -0.3730931
  -0.3948813  -0.0642847  -0.0361933  -0.0465781   0.5121364   0.4720239
   1.2119541   0.1715894   0.2068312  -0.2252892  -0.1912899   0.2093720
  -1.4480559   0.3139315  -1.2123280   0.7087469  -0.8826867   0.0085088
  -0.2240047  -0.1115190  -0.1352099  -0.6971818  -0.8609003  -0.5310472
  -0.0433036  -0.9058074   1.9851568  -0.0617623   0.1754515   0.1255261
  -0.5847074   0.6653895   0.8568174   0.3953091  -0.7852393  -1.0564054
   0.1123098   0.0239140   0.1353604   0.0334280   0.0004739  -1.4868580
   0.0851406   0.7139252  -0.0698151  -0.0888046   0.0813186  -0.2633839
   2.1095598  -0.2080333  -0.2986872  -0.5091631  -0.3881971   0.6902805
  -0.0603272   0.0821641   0.2128680   1.1186936   0.7085081   1.1589022
   0.1353611  -0.1959729  -1.4752433   0.2895777   0.1451682  -0.2570425
  -0.6800427  -0.8650641   2.2202518   1.1872963  -0.4263979   0.6520893
  -0.0016858  -0.1135541  -0.1371500   0.3702623   0.4970136  -0.3061091
   0.7244910   0.8356728   0.0160808   0.0789976  -0.3614688   0.2428842
   0.0719046   0.8384342   0.0302874  -0.5617014  -0.3706273   1.5539896
   0.4287727   0.2083878   0.0952204  -0.5569765  -0.6546756   0.9772252
  -0.6135650   0.4033765   0.1021558  -0.1202995   0.0965444  -0.0872694
   0.6230772  -0.4213977  -0.0655556   0.1263657   0.2117010  -0.4659908
   0.3159411   0.2166395  -0.1300251  -0.7169157  -0.8890287   0.9274348
   0.0727240  -1.6185437  -0.4976001  -0.1865889  -0.2310344   0.1087341
  -0.4932880   0.1037912   0.2336157   2.4469693  -0.1582293   1.0342668
   0.2858621  -0.1513473  -0.0872588  -0.2875969  -1.1525779   0.0943889
  -0.0494941  -1.4454910   1.2224154   0.2016348   0.0623990  -0.1010005
   0.0738606   0.7284800   0.0736765  -1.1450058  -1.7429096   0.0519984
  -0.0228668   0.0575438   0.3849191  -0.7572549  -1.4109355   0.2566462
   0.2358886   0.8832474  -0.1609158   0.1329106  -0.0677018   0.1544217
   0.5165371   1.3018644   0.2090912  -1.5114818   0.8659493   1.2205161
  -0.0887166  -0.1660802  -0.1493040   0.5169248   0.5778589  -1.1227945
   0.4027807   0.0100747   1.7206939   0.0538141  -0.1700694  -0.0414118
  -0.4576892   1.7370780  -1.3090476  -0.3281519   0.1044404  -0.4652406
   0.1872246  -0.3964314   0.4010044  -0.4348265   0.9446894   0.1380918
  -1.5414566   0.2595334   0.2970567  -0.3050737  -0.0321288   0.1303400
   0.5418245  -0.6571516   0.3458001   1.2365223   0.2443910  -0.3674909
   0.0568531  -0.0581905  -0.0055011   0.1448762   1.0142170   0.8884280
   0.8572520   0.7541081   1.3396393  -0.3458515   0.3592129  -0.1578077
   0.1565068   0.7826693  -0.7276142   1.2390114   0.0364212  -1.7757797
  -0.2992870   0.4361523   0.0742248   0.0697435  -1.4958024   0.6582564
   0.0683319  -1.0707766  -0.9637473  -0.0388871  -0.0143766  -0.0295062
  -1.1440095  -1.4610318  -1.1470019   0.8973550   0.0459057   0.6778203
   0.2060065   0.0909981  -0.0803235  -0.7823184   0.3243213   0.1168944
   0.4914727  -0.5331309   0.0632924  -0.2245340   0.0781876  -0.2383101
   0.3147188   0.2658230  -0.1947866  -0.7568231   0.2061530   0.1120963
   0.0718602   0.0528671  -0.1854445   0.1393317   0.7908459   1.9682550
   0.1809682  -0.9670984  -0.7368921  -0.2333279  -0.0250124   0.3011644
   0.7876137  -0.8122658  -1.5405647   0.9187503   0.0888913   0.3725536
   0.0192828   0.2136138   0.0933419   0.6020536  -1.0076715   0.1748843
   0.9123216  -0.1187079   0.2872032   0.1857900  -0.3695578  -0.0338776
  -1.0543145  -0.1897669   0.6296739   0.2718919   0.5672922   0.0190909
  -0.2099394   0.1787205  -0.0888251  -0.1596047  -0.5549113   0.5064423
   0.2374711   0.4573802  -0.9193526  -0.1617444  -0.2021643  -0.2051689
  -0.3813914  -2.0115268  -0.5248898  -0.7025777   0.1924036  -0.9195627
   0.0759176  -0.0731987   0.0445604   0.3792085   0.5950131   1.5215647
  -0.1751211   0.2300652   0.7274545  -0.0442732   0.1943732  -0.0687496
  -0.6123517   0.0422552  -0.3393352   0.4030523   0.3210780   1.1190630
  -0.1821395   0.3641293  -0.0039449   0.4700439   0.6584183   1.4977976
  -0.8172713   1.1123098  -0.8137326  -0.3374705   0.1348464   0.0767650
   0.2281726   0.4315237  -1.3679515  -0.0943852  -0.1176582   0.4314498
   0.0781979  -0.0040455   0.1371906  -0.8978592  -0.6005294   0.1888590
   1.1534209  -0.4223026  -0.7372819   0.2375069  -0.1491099  -0.4232683
   0.1930467   0.2003817  -0.2757964   0.0110763  -0.8055643  -0.0358426
  -0.0477174  -0.2819944   0.1780645   0.1964277  -0.5558152  -1.0353204
  -0.6584250   0.0086820   0.5941335   0.1251788  -0.1602468  -0.2937804
   0.2028596   0.0703819   0.0614387   0.3460273   0.7913769   0.2143361
  -0.1338955   0.1172322   0.1169639   0.1468474  -0.7816256  -0.6851645
   0.0274450   1.5763863  -0.0450212  -0.1984608  -0.0618590  -0.0278958
   1.1780204   0.7196962   0.2950366  -0.5909525  -0.6476573  -0.1042988
  -0.2916317   0.0705905   0.3007051   0.1100086  -1.3628521  -0.2170585
  -0.0257867  -0.7867329   0.0382993   0.1080737   0.0271045   0.1044771
  -0.7993809   0.9374455   0.2400317   1.2277024   1.4711037   0.4703361
  -0.0056330  -0.1544085   0.3948340  -0.3483731   0.2814245   0.1833191
  -0.1662518  -0.8714550   0.9014191  -0.1004468   0.0559747   0.2406431
  -0.1609355  -0.5265355  -0.6325383  -1.0739223  -1.3112471   0.8600116
  -0.0063821  -0.1822425  -0.1082236  -0.4863547  -1.5777869   0.7215791
   0.0798914  -0.0248936   0.3278178   0.0875459   0.1818143   0.1500669
   0.1516680  -1.4474082   0.6109042   0.0748383   1.3911744  -0.8825453
   0.1950648   0.1654415  -0.0875293  -0.1622770   1.5128539  -0.9361259
  -0.1230532  -1.3084855   0.5095698  -0.2858276   0.3849942   0.1730469
   0.7742160  -0.6128320  -0.2864354   0.8689129  -0.3928839   0.6764464
  -0.3680495   0.0433178   0.0099622  -0.4151757   0.1858030   0.7624919
   0.8334670  -0.7775701   0.3503979  -0.4142856  -0.3397750   0.1264824
   1.2714181  -0.3729171  -0.4485772   1.3160316  -0.2340914   0.4018359
   0.1609666   0.2982819  -0.0927297   0.4300196  -0.7203896   0.3248855
  -0.1211167   0.2517540  -0.1249958  -0.2408737  -0.4610603   0.2629589
  -2.3673928   1.0078001  -0.6496667   0.6689171  -0.2398044   1.6675904
   0.3059622  -0.1336548   0.0673605   1.2380621  -0.3104787   0.7780904
  -2.1745524  -1.6260099  -0.3119262   0.2270924   0.0561695  -0.1695448
   0.2312187  -0.4040112   0.3726483   1.2715482   0.4985015  -1.1412106
  -0.5405495   0.1694522  -0.1618563   0.0893540   0.3994511   1.2121948
  -0.4988233   0.1407063   0.4667501   0.0614861  -0.0103187   0.0495817
  -0.7331350  -0.1112625   0.6145754   0.4315099   0.7958630  -0.7397004
  -0.5100024  -0.1520882   0.0825042   0.4643404   0.0787803  -0.2565821
   0.6881976   0.5396008   1.1979170   0.1932674   0.3489806   0.0849178
  -0.4869797   0.1503147  -0.1577044  -0.9180505  -0.2245934   0.2870264
   0.0802299  -0.1929455   0.0610105  -0.8803394   0.2810213  -1.2876749
   0.1222244  -1.6027681  -0.2177744   0.3801343   0.1170257   0.0528572
   0.8744130  -0.6838456   0.5925700  -0.8419214  -0.0157962  -0.5465353
  -0.0840797  -0.0154001  -0.0525647  -0.7217484   0.0657893   0.6902863
  -0.4021193   0.7846814   0.0282638  -0.3262570  -0.0730711  -0.0416932
   0.3311693   0.0170887   0.1701814   2.1178973  -0.3146649   1.4404806
   0.3320683  -0.4508775   0.0293595  -2.7385809   0.0924333  -0.1482629
  -0.0538208   0.4583813  -0.0740528   0.1720547   0.2068599   0.1718464
  -0.1797733  -0.2192685  -0.8967493   1.2722082  -0.2324584   0.4829143
  -0.3693754   0.0714855   0.0244914  -0.1712825  -0.6348322  -0.6199413
  -0.0966775   1.3503898  -1.0894485   0.5151815   0.1426162  -0.3697351
  -0.1858072   2.2653859  -0.0020865   0.0466113   0.7067068   0.7881510
   0.1633926   0.0045978  -0.0590524  -0.5764892  -0.5558132  -0.3411528
  -0.1329256  -1.1457503  -0.2941144   0.0438934  -0.0176055   0.0891552
   0.7637545  -1.5584750  -1.1279727  -1.0828725  -0.3788287  -0.3474401
  -0.0557166   0.0144502  -0.1255271  -1.0597599   0.1558361  -0.8449390
   1.3710747  -0.1775125  -0.1574720   0.1389227   0.0499211  -0.1108418
  -1.3172746   2.0366585  -0.4644622   0.1263612  -0.9785153   0.3175423
  -0.2888547  -0.0631145   0.0031892  -0.8066750   1.2142524  -1.2345449
  -1.3096348  -0.1897346  -0.5136045  -0.0774278   0.0404773  -0.0258291
   2.1108909  -0.6035550   0.0933614  -0.0453474   1.3071235   0.8030872
  -0.1640462  -0.1955948   0.0498939  -0.8822746   0.4031518   1.5299840
  -0.7950450  -0.0513456  -0.8193745   0.0471483   0.2378918   0.1748506
   0.2727732  -1.0413396   1.2252473   0.8801617  -0.7948478  -0.7676402
   0.0983997   0.0009045  -0.0220187  -0.2302846   0.1832899   0.3502761
  -0.7149531   0.1462640  -0.0240732  -0.2220232   0.1418080   0.3291706
   0.5257509  -0.2553333  -0.6289927  -0.3480099   1.0606391  -0.0790388
  -0.1307838  -0.0164338   0.2500384  -1.1603638  -0.6646435   0.6548287
   1.1055310  -1.0901455  -0.6136684  -0.2060392  -0.0326735   0.2127505
  -0.0705459   0.2993818   0.3933471  -0.3206638  -0.2447917  -1.3024256
  -0.2256858  -0.0788833  -0.1241595  -0.0623434  -1.1743747  -1.1070801
  -0.5519804  -0.8381470  -0.2139398   0.1099559  -0.0041298  -0.3989518
   0.4572779   1.0847793   0.7370483  -1.0166376   0.1895166  -0.1895838
   0.1299175   0.0407049   0.0668465  -0.6506802  -0.6269804   1.1866865
   0.8553017   0.6299632  -0.0070082  -0.1021790  -0.1830356  -0.1841724
   1.1893595  -0.2548934  -0.1739776  -0.3196828   0.6754881   1.3705229
  -0.4719323   0.0266009   0.2170959  -0.2013950   1.1670721   0.4384087
   0.4625828  -1.1523738   0.5933112  -0.1594567  -0.0844310   0.0224814
  -0.3550547   0.5477934  -1.3477249   0.6147719   0.9584369   0.2058697
   0.0785746  -0.2320054  -0.4107306   0.1242305  -0.3662867   0.6878801
  -0.0365362  -1.5327586   0.9773526   0.1804385  -0.1661242   0.0493140
   0.5019630  -0.1947157   0.3242278   2.4369872   0.0238170  -0.8084559
   0.3395896  -0.1802309   0.1612723  -0.9200814   0.1982051  -0.1694180
   0.0709813   0.0717121  -0.6367745  -0.1411461  -0.0731372   0.0937903
   0.1154184  -0.4622134   0.6238067  -0.2296833   0.0794020   1.0019857
   0.2863201   0.1996640  -0.0559350  -0.9766340   0.8139145  -1.0179242
   0.5170608   0.5718869   0.8446640  -0.0537843   0.3006312  -0.1473325
   0.4218518  -0.1112206   0.6412551  -0.7318683   0.4818191  -1.2131370
   0.2797422   0.1463603  -0.0834318  -0.5108894   0.4657721   0.7649669
   0.1536858   0.9662220  -0.2541030   0.1647486   0.0859794   0.0829930
  -0.2270622   0.0134888   1.2469548  -0.3907349   0.2352702   0.7182693
   0.1760105   0.1107370  -0.0451505  -0.4979304   1.2912879   0.8195861
  -0.7358390   0.2821841  -1.1858191  -0.5968655   0.2642797  -0.1901014
   0.3800138   0.3247753  -0.5055472   1.5391881  -0.2351494   0.8643267
   0.3273540   0.1583880   0.0869901   0.8589503  -1.0033628  -0.9897888
  -0.1829284  -1.5516852  -0.4963183   0.1170858  -0.2763257   0.2755581
  -0.9205428   1.1008265  -0.6314003   0.9998624   0.4546220  -1.3135806
  -0.1135897  -0.0765030   0.0864937   0.2808170  -0.8739914  -0.1343847
   0.8146548  -0.0223664   0.0306944   0.1380468  -0.0814516   0.0385610
  -0.1442425  -0.4263054   0.7290719  -0.4035692   0.0265856   0.1606411
   0.0536080   0.0384532  -0.2737522   0.3555184   0.3145354   0.2044575
   1.7534318   1.7914206   0.4028742   0.2913944  -0.1863801  -0.0793243
  -1.0159811  -0.3188019   0.7315195  -0.7865283   1.6158388   0.4342760
  -0.1043216  -0.0967879   0.0881752   0.3260511  -1.3068975  -0.5479029
  -0.4378936  -0.2966935  -0.8747495  -0.2696861   0.2706528  -0.3605628
  -0.2536593  -0.7713447  -1.7557942   1.6034013   0.4483874  -1.4071612
   0.0452919   0.0232227  -0.0728502   0.4819294  -0.2725756   0.1943554
  -1.5462215   0.2610025  -0.5096771  -0.1420202  -0.0684255   0.0313829
   0.0832812   1.0107967  -1.3136846  -0.8683584  -0.2034404   1.0517263
  -0.1266752  -0.1732211  -0.1627628   1.1227605  -0.4676958   0.5213858
   1.0503963  -1.4389105   0.6550020  -0.1939123   0.0324649  -0.2755377
   0.3701999   0.8993332  -0.3520153  -0.1695087  -0.2954291  -0.0394264
  -0.0758595  -0.3162433   0.1658243  -0.5120167   0.1719024   0.2760439
   0.1982229  -0.6605660  -0.3174484  -0.1748689  -0.4330401   0.2166807
  -1.3932765  -0.0049703  -0.5664085   0.9618812   0.0640318  -0.3624565
  -0.1040899   0.0060044  -0.0008105   0.9125869  -0.6775837  -0.0071940
   1.4678859  -0.3111060  -0.5726817   0.2436664  -0.0551938  -0.0857759
   1.2971994  -1.0384375   0.1393430   0.3048783  -0.3223190   0.4323123
  -0.0430745   0.1026089  -0.1292626  -1.7967788  -1.5891290   0.5346870
  -0.1668317   0.3545475  -0.8713428   0.0065191  -0.0384491   0.1740323
  -0.2187617   0.0445418   0.3768484   0.5902694  -0.0666566   1.5316508
   0.2782633  -0.3637450   0.1239655   0.9625469   1.8854754   1.4640011
  -0.6112803   0.1275562   0.0405440  -0.0507567   0.0908427  -0.1146265
  -0.5887367  -0.1806239   0.4515775  -1.2469910   0.5420890  -2.0662415
   0.1028439  -0.1703359  -0.0702904   1.0484380  -0.3263375  -0.9746411
   0.3676307   0.8448840   0.8415293  -0.0620538  -0.0289401   0.1353192
   0.3689800  -0.3858981   0.9715965  -0.2599090  -0.0157180   0.1507032
   0.2833157   0.1343756   0.0458877  -0.9564112   0.1020125   0.0898061
  -0.8262081   0.1599216  -0.2112469   0.1102581   0.1177166   0.0393220
   0.5696933   0.6818458  -0.6991360  -1.3238596  -0.1243428   0.1289700
   0.0356626   0.0742624   0.0914410   0.3460405   0.0345006  -0.2676089
  -0.3986564  -0.9681413  -1.0288773  -0.1143020   0.0644656  -0.1456611
  -0.0620161  -0.0360551   1.0466901  -1.1506034   0.3713286   0.6227911
   0.1949737  -0.0384308  -0.2595728  -0.0648507  -0.6160718  -1.9366001
   0.2478421   1.8504615   0.0358633   0.4320678   0.2216080   0.1344071
  -1.8310226   0.4821645  -0.9166226  -0.1487091  -0.2334802  -0.5313013
  -0.1642715  -0.0286137  -0.0514555  -0.2742800  -0.6244411   0.1233144
   0.8802405  -1.3231343  -1.4927880   0.1587694  -0.1609764  -0.1050272
  -0.3914321   0.2653275  -0.6243092  -1.5499176  -0.5059130   0.6253392
   0.6075833  -0.0767943  -0.1840223  -1.5325716   0.0236726  -0.6112598
   0.1380152   0.1576135  -0.4174722  -0.0828069  -0.1237053  -0.2740600
   1.3402212  -0.0796321   0.2899718  -0.7306836  -1.4449430   0.5897705
   0.0795413  -0.3826990   0.2877180  -0.8302177  -1.5935344   0.1816047
  -0.1468479   0.1397072  -0.3371398   0.1060420   0.0428553  -0.4194919
   1.4342967  -0.1492764   0.0009625  -0.1214438  -0.0176901   1.6174612
  -0.1947358  -0.3784610  -0.0966611   0.3263107   0.7774860  -0.1088750
   0.4370622   0.1843819   0.0768468   0.4059736   0.2923183   0.1290845
   0.3185777   0.3785559   0.0959438  -0.4483874   0.1516850  -1.2781727
  -0.0106570  -0.0973125   0.0857242  -0.5518488   0.1210402   0.6009241
  -0.5252455   1.3001335   0.4000212  -0.1217939  -0.1855838   0.1767531
   1.0586604   0.4034030  -0.6655461  -0.9569994   1.2763551   0.0649072
  -0.3839399  -0.0532733  -0.1041830   0.2795318  -0.0318931   1.0830584
  -0.0077090  -0.9688408  -0.7356640   0.1417498  -0.0973970  -0.1215169
   0.0341030   0.9396725   0.3710118  -0.9572373  -0.2166981   0.1549449
  -0.0835839   0.2348155   0.2858312   0.6085495  -0.0175791  -0.6961679
  -0.2852959   0.5787129  -1.7902678  -0.0074447  -0.3536942   0.3249480
  -0.1901815  -0.5799282   0.3470289  -0.3008099   0.9088292  -0.5462576
  -0.1778544  -0.1491874  -0.0069252   0.4007584  -0.5244476  -0.5755618
   0.2266415  -0.5064359  -1.6744738  -0.2887951  -0.2305505   0.3678527
  -1.0271831  -0.3820636   0.7985078  -0.1381449  -1.2322648  -1.5512192
  -0.0578574   0.2247807  -0.1128793   0.0809263   0.5984550   0.2579060
   1.4925983  -1.1866885   0.0191327   0.1131279   0.2639669   0.0757322
   0.2944310  -0.3390270  -0.5210897  -0.6535997   0.1958828  -0.2261392
   0.1612138  -0.2453651   0.1964981  -0.7641869  -0.0017166  -1.0817147
  -0.2101623  -0.8815635   0.4766251  -0.2433868  -0.2861419   0.2459557
   0.1393442  -0.2055963   0.8220314   0.7328593   1.3082750   0.0044989
   0.0740583   0.1145370  -0.1609373   0.1049900   0.6437351   0.7549942
  -0.3029266  -0.0965855  -1.0654247   0.2839766   0.0765544  -0.4152068
  -0.2387444  -0.0264316  -0.2623449  -0.5318863   0.7029015   2.0218432
  -0.1043542  -0.1022665   0.3814431   0.5320268  -1.7325644  -0.3209409
  -1.0949391   0.6479615   1.2070327   0.0097230  -0.0266330  -0.0203618
   0.0404050   0.4733412  -0.1761228  -0.3167730   1.0770667   0.6503617
  -0.0107389  -0.1522191  -0.0036985   0.3000606   1.5529443   0.8768830
   0.5695105  -1.0125107   0.5258322   0.4192151   0.1308319   0.0233076
  -0.6304582   0.2810115   1.0543835  -1.1021988  -1.6147704   1.3309067
   0.3868603   0.2567279   0.0660684  -0.9894723  -0.1906814   0.8541710
  -0.1872520   1.3479081  -1.2062258  -0.2568021   0.0194365  -0.2358241
  -1.8131856   0.2647385   0.7088476   1.1098319   0.9520326  -0.2179745
  -0.2930870   0.0014793  -0.3731726  -0.4325361   1.0427923  -0.2871059
   1.5542592   1.7070169  -0.4676062  -0.3776932  -0.1188625   0.0633677
  -0.4857921  -0.5050917   0.4955119  -0.4505788  -0.2984564  -0.0302446
   0.0724659   0.0363831   0.2772473  -0.2295395  -0.6927387   0.3264617
  -1.6420437  -1.2114372  -1.3047665   0.0228054   0.2507820   0.4308634
   1.2300341  -0.0930231  -0.6597997   0.1129949  -0.0912492   0.2522641
   0.3210555   0.0569942  -0.0815432   0.4430655   0.7677578   0.5973999
   0.2947215  -0.6437992  -0.0558562  -0.1448186   0.3138758   0.2074257
   0.1570839  -0.5999712   1.4104215  -0.8062645   0.5452777  -0.8014529
  -0.0020793   0.1636311   0.0930630  -0.7501293  -0.2808760  -0.1412701
   0.1340937  -0.0314089   0.0047575   0.0911552  -0.2667527  -0.2031482
  -1.1309953  -0.5020421  -1.1006975  -0.6198283  -0.3551229  -0.5400057
  -0.2240231  -0.1519008   0.0818371   0.9665504   0.5099123   0.3365941
  -0.5596404  -0.1518378  -1.4384856  -0.0240232  -0.0656409  -0.2216492
  -0.5162146  -0.0951755  -0.1295490  -0.8499754  -0.9763160  -0.5424030
   0.1148490  -0.2719404  -0.2577983  -0.7834475  -0.2502470   0.5093410
   0.2682877   0.4517884  -0.0164725  -0.1759146   0.0636544  -0.5217829
   1.0755746   1.4190171  -1.3181840   0.6657188  -0.6874586  -0.8710938
  -0.1391850  -0.0951417  -0.0602694   1.1704352  -1.7129890  -1.2388469
   1.4161683   0.3276940   0.2432257  -0.1401512  -0.1171093   0.1197201
   0.8992236   0.8821947  -0.6148885   0.4502094  -0.1386053  -0.7942760
  -0.0027867   0.0012581   0.0732432   1.0070823   0.1865727   0.4473209
   0.1232613  -1.5078163  -0.0395424   0.1437884  -0.4740640  -0.0064265
  -0.1618128  -0.1393818   0.2169262  -0.5136985   0.7262658   0.5995937
  -0.0632091   0.0487831   0.1413002   0.9398039  -1.3386868  -0.5873755
  -0.3004692  -0.8203854  -0.5297283   0.0658154  -0.1948350   0.0289077
  -0.5291680   0.1304947   0.3115700  -0.6865441  -0.6857640   0.3310054
   0.2921295  -0.0673041  -0.0271857   0.2970184   0.2627909   0.6529105
  -0.6471907   0.4175118   1.0654559  -0.1562498   0.0840829  -0.2663946
  -0.3157980   0.1497302  -0.0017342   0.1020794   0.8066728  -0.4340416
   0.2128417  -0.0673601  -0.1394689  -0.9494146  -0.8546693  -1.2559550
  -0.8067411   1.0174193   1.1288397  -0.0901339  -0.1208512  -0.4927235
   0.0730235  -0.3087274   0.1565506  -0.7353225   0.3165327  -1.1228565
   0.2196564   0.0218148  -0.1453996   0.9082682  -1.5171303   0.1360245
   0.3793203   0.6253908  -0.6183645   0.1612465  -0.0376998   0.1352682
  -0.7716035  -0.4632860   0.3487608   0.0938854  -0.3701580   0.2886648
  -0.1407052  -0.2353530   0.2219299  -0.5117123   0.0883215  -0.7154302
   0.8812335  -0.6872177   0.7813119  -0.0504752   0.1533314  -0.4278059
  -0.3484699   0.0771668  -0.1545303   0.9191571  -1.0211819   0.1206467
  -0.1293929   0.0013519   0.0682722   1.9431974   0.9708439  -0.0958427
   0.0732414   1.0532759   0.4140054  -0.2323398   0.3673934   0.0391396
   0.3770201  -0.8691970   0.2661590   0.6479235   1.1902816   1.5329039
  -0.0786220   0.0544586  -0.2447197   0.9778714   0.3508536  -0.6642127
   0.0144249  -0.4397455  -1.3698299  -0.1743862   0.3141209  -0.0907134
   0.3107263   0.0934697   1.1207868   0.0579090   0.7286091  -0.4121155
  -0.0824625   0.0487221  -0.1018573   1.0661119   1.7621322   0.0909165
   0.3958831  -0.9900404   0.0383755   0.0237656  -0.1099927  -0.1218595
   0.5793728   1.1263345   0.2577813   0.5839119  -1.3465672   0.1096910
  -0.3310017  -0.2792321   0.1261376   0.6163490  -0.9731761  -1.9303656
  -0.5922973  -0.2697615   0.4883484   0.0432056  -0.0893266  -0.0138586
  -1.4642850   0.5484831  -1.1837507  -0.4176019   0.5251874   2.3604817
   0.0459991   0.0810128  -0.2794164  -0.3554622   1.6847239  -0.3220852
  -0.0792408   0.0580959   0.4925893   0.3278893   0.2505730  -0.2173362
  -0.6016470  -0.2628344   0.0870251   0.7232783   0.8091102   0.3162959
   0.3563044  -0.0635625  -0.1178465   0.0948156  -1.3486426  -0.6869645
   0.0704662   0.0273278   0.5145559  -0.2750420  -0.6280293  -0.0745910
   0.1935531  -0.2846441  -1.3528003   0.8369256   0.6991883   1.7323589
   0.2018443   0.0295157   0.2439791   0.3852889   0.2140750  -0.7390617
   0.1090074   0.5440593   1.0269444   0.1742680  -0.0851817   0.0487043
   1.5244629   0.2846917  -0.3672907  -1.2360861   1.4626698  -1.0524958
   0.1818348  -0.4856579  -0.1269583  -0.3079652  -0.8196021   0.5283102
  -0.6928898   0.3119670  -1.0756586   0.0769323   0.3231874   0.0340860
  -0.3292918  -0.0948854   0.4024265  -0.1480014  -1.1117349  -0.8874294
  -0.1365925   0.0965182  -0.3457977   2.1143854   0.7093924  -0.0723063
   0.5242732  -0.3524057   0.7785359  -0.3401805  -0.0698882   0.0564669
  -0.3219253  -0.3894818   0.2732455   0.9274584  -0.0644766  -0.1599876
  -0.1954920   0.1036248  -0.0887924   0.6038104   0.3582295   0.6343715
   0.2731206   0.7561468  -1.4099700   0.0042357   0.0093555   0.0826913
   1.9985604  -0.1325486   1.0246458  -1.4616383   0.7046784   0.6259978
  -0.0387147   0.0847613  -0.2534051   0.7229294   0.9845390  -2.2885463
  -0.1806779   0.1031988   1.7990428  -0.2421725  -0.1401785   0.1286332
   2.7738938  -0.4269468   0.4155343   0.6558746  -0.1984435  -1.1613959
   0.0857247  -0.0441906   0.0909628   0.4012588  -1.0162003  -0.3368559
  -0.1802897   0.1426149  -0.1768941  -0.5082613   0.4013953   0.0220866
  -0.0000245   1.1620995   0.7719327  -0.9966602  -0.0726938  -0.9927362
  -0.2856433  -0.3687645  -0.2782997   1.1106828  -0.3761942  -0.3076586
  -1.1904068  -0.5222872   0.2561666  -0.2529531  -0.1389808  -0.0197318
  -1.1496139   0.4995394   0.2814363   1.0317411  -1.6336074   0.6421404
  -0.0439384  -0.3038734   0.2874743   0.6839178   1.1820840  -0.4657317
  -0.8479258  -0.7356090   0.4654018  -0.0287395   0.1811035  -0.0124486
   0.5860159   0.1045542  -0.7916724   0.2455985  -0.6336974  -0.1777370
   0.1001972  -0.2192418  -0.2970322   0.0668176   0.2802064   0.5628319
  -0.1500517   0.4120728  -0.7779137  -0.0185770  -0.1744745  -0.0600037
   0.9997666  -0.4838953   0.6228757  -0.8058020   0.8137680   0.7348440
  -0.0764552   0.2710422   0.2575268   0.5154708  -0.6661579   0.5137774
   0.1881760   1.9995950  -1.0181324  -0.0048919   0.0367882   0.1547849
   0.2515231   0.5536193  -0.5454226   0.5474575  -1.1904598  -0.4439545
   0.3283028  -0.2370363   0.2787941   0.1116422   0.9014850   0.5246283
  -0.9949893   1.2602383   0.6115677   0.1837200  -0.3947028   0.0406853
  -0.1348181  -0.6783985  -1.3308861   0.4618472   0.3383891   0.2730481
   0.0910604  -0.2978825   0.2661088  -0.6719554  -2.4750843  -0.7580072
   0.0890450   0.2474610  -0.4233098   0.0545483   0.0391839  -0.0642759
   0.2546076  -1.8301268  -0.6839793  -0.0680569  -0.8700972  -1.0746520
  -0.1787316  -0.0372296  -0.0906763   0.7618205  -1.3084077  -0.2409390
   0.6771507   0.4491029  -1.4614149   0.1008260   0.1081414   0.1880529
  -0.1552470   0.0783238   0.8636985   1.2549872   0.6556401  -0.4782554
  -0.2766747   0.0717500   0.0661035  -0.6413079   0.6118066  -1.9465494
   0.4057426  -1.1074938   0.4566045  -0.0195151  -0.0375470  -0.1901726
  -0.3094278  -1.5694381   0.3786676   1.1414726  -1.3438820  -0.4943710
  -0.1502760  -0.3265397  -0.2183893  -0.0785362  -0.8165195  -1.1151378
  -1.0666884   0.5650203  -0.9083219   0.3743065  -0.1134516   0.0234536
  -0.4709118   0.8705714  -0.4864779  -0.0898292  -0.5665609  -0.3483675
   0.0689483  -0.0746918   0.1071945   0.1666924   1.0611196   1.3997591
  -0.0621053  -0.0239989  -0.0533034  -0.1403831   0.0558432   0.0369236
   0.6322417   0.8452846   1.6746407   0.1270378  -0.1756108  -0.2334214
   0.3045833   0.3984712  -0.0677392  -0.7345627  -0.4583727   0.3341262
  -0.3998165  -0.5461307  -1.1241822  -0.1799829  -0.0672750   0.0889865
   0.3316925  -0.2383990   0.5193020   0.9616574  -0.0837835  -0.1820521
  -0.2327405  -0.2201579  -0.0028519  -1.0469453  -0.2766029   0.5581182
  -0.6927143   0.1871775   1.1143415  -0.2086381   0.0300911  -0.0404343
  -0.9321567   0.5930057  -0.4383584   0.2701805   0.8615845  -0.4643671
  -0.0052131   0.0307296   0.0733398  -1.2046539  -0.8030460  -0.0073968
  -0.3829184   0.0434190  -0.7466328   0.0698728   0.0985958   0.0468243
  -0.0716089   0.0808479   0.2524880   0.0749642   1.3171823   0.3154599
  -0.0611050   0.2506142  -0.0093703   1.2350808   0.1312761  -0.1862769
  -0.0586590  -0.2789950  -1.7545402  -0.1943440   0.0645254   0.2358425
  -1.6201813   0.7641648  -1.3720952  -2.3481042   1.1032475  -1.4414364
   0.1681977   0.3447849  -0.0195274  -0.9410506   1.4054773   0.4077732
   0.3406281  -0.7421621  -1.2159541  -0.0203905  -0.0369320  -0.1066108
   0.1297266  -0.5004680  -0.5461070   0.0216841   2.1386352   0.3200167
   0.1039602   0.0273870   0.2297180   0.7422062   0.3170113   0.1593022
  -1.4099743   1.1243914  -0.3566324  -0.1588515  -0.2396792  -0.1225410
   0.8124034   0.2436580  -0.4044502  -0.0736920  -0.2178606  -0.1502739
   0.0134070  -0.3814280   0.0539209   0.1226277  -0.3453164   1.2013456
  -1.5156116   1.4168149  -1.1885455  -0.1988177   0.4110011   0.1406381
  -0.3639207  -0.4364690   0.3479887  -0.1858881   1.0549713  -0.0510430
  -0.4276037  -0.1767869   0.0428745  -1.3629010  -1.3675963   0.1205633
  -0.8960857   0.2607045   0.2277298  -0.1406787   0.0171439   0.0315971
  -0.3830531   0.7776700  -0.2611296   0.2167611   0.4936916   0.9095520
  -0.1454173   0.1101956   0.1796475  -0.5050472  -0.3400931  -0.2708284
  -0.1818250   0.6046663   1.1088150  -0.1704740  -0.2972050  -0.4731230
  -1.2529231   0.4794925   0.9378630  -0.1481243   1.1937547  -0.2034651
   0.3978697  -0.0968830  -0.1981542   0.5592772  -0.3784692   0.1472448
  -1.0533460   0.3765732   1.1688222   0.0426663   0.0751575   0.0991041
  -0.6461572   0.6938302  -0.0222729  -0.8566218   0.2257559   0.1083362
  -0.2255112   0.1582813   0.0975151  -0.1574963  -0.6014098   0.2470075
   1.0300264  -1.1575308  -0.8967923   0.1942117  -0.0181771   0.2953302
   1.0052961  -0.4311041  -0.0724610   0.2346233  -0.4054209  -0.0023383
   0.1238049  -0.1122293  -0.3506680  -1.3051937   0.1960895   1.2105722
  -0.8427035   0.0237302  -0.9369521   0.3130521   0.3701635  -0.0118138
   0.2221258  -0.3723255  -0.2005634   1.1610111   0.0780055   1.0490401
   0.0256523  -0.1534420   0.0377533  -0.1829410   0.1355082  -1.2813200
   0.1180209  -0.0919232   0.2475669  -0.1544227   0.2796629   0.0830928
  -0.5706980  -0.2253716   1.1563894  -0.1719276  -1.0505321   1.7802891
   0.6373009   0.1381024   0.0568107   0.4127035  -0.3166651   0.0528166
  -0.4680271  -0.7471691   0.5177833  -0.1878239   0.0776384  -0.0144329
  -0.4945003  -0.3159073   1.2269423   0.6129403  -0.0839106  -1.0126024
  -0.2195888  -0.0110555   0.0173301   0.6792147  -0.4172844  -0.5758491
  -0.0104309   0.3480833   0.2910593   0.1695875   0.0930195   0.0083800
   0.1866604  -0.4605067  -1.6199989  -1.7207382   0.5493039  -0.2401806
   0.1918325   0.2636829   0.0479951  -0.2129518   0.7644087   0.5528483
  -0.7715806   0.6526625   0.3044328  -0.1442510   0.1743070   0.1552824
  -0.3014834   0.7780202   0.1486730  -1.6564871  -0.8343354  -0.1074945
  -0.1549192   0.0606011  -0.0213855   1.2434444  -0.2356861  -1.8934180
   0.1461823   1.1620772  -1.3881646   0.0146404  -0.0068522   0.1560934
  -1.2701437   0.2216542   1.7594008  -0.6751431  -0.2495664  -0.3485610
   0.0341339   0.1636189   0.0075752   0.9447390  -0.7490302   0.2496451
   0.5098255  -2.0681763   0.2040934   0.2406967  -0.2313901   0.0107228
   0.1789094   0.2777867  -0.8008475   0.5960869  -0.4518967  -0.8077503
   0.2960955  -0.1349432  -0.1541655   0.8522739  -0.2549323   0.4328917
  -0.6381692  -1.3592190   0.3942864  -0.2960317  -0.0629560  -0.1063713
   1.2632967  -0.9643792  -1.0341994  -0.0714441   0.1008011  -0.2870046
   0.1527772  -0.2828254   0.0236717   0.4542791  -0.6760300  -0.5360998
   1.3989675  -0.0541084   0.5393901   0.0398699  -0.1631812   0.3341869
  -0.8889834  -0.7217317  -1.2219242   0.2308894   0.2304818   0.2973264
   0.2180079  -0.1251219  -0.3293960  -2.4029887   0.6026987   0.1651815
   0.8647473   0.9549775  -0.5778134   0.0788447   0.1028863  -0.3585725
   1.1335386   0.5415496   0.3819927  -0.5106201  -0.7760850   0.2630737
   0.3010786   0.0585341   0.0280690   0.0709767  -1.6656208  -0.1057027
  -0.0414825   0.4081933  -2.5808671  -0.2455518   0.3305687   0.2176055
  -1.8579255  -0.5474033  -0.4511054   0.3567373   0.6292988   0.9866015
   0.0990242  -0.2237134   0.2187302  -0.2032207   0.0241493   0.0130811
  -0.5453936  -0.4476483   1.0593407   0.0553828   0.4091397  -0.0121518
   0.5681345   1.0651186  -0.2091774  -1.4430574  -1.3132745  -0.6408509
  -0.0199803   0.1734761   0.0279053   0.5461375  -0.3828602   0.9449266
  -0.5238609   0.3721511   1.0454990  -0.1399050   0.0007820  -0.0969278
   1.9573346   1.2914762   1.1477467   0.4839134   0.3516965   0.8915035
   0.1206070  -0.2740108   0.0019069  -0.0973472  -1.0203961   0.7887218
  -0.2817329  -0.8811595   0.1594370  -0.1446618   0.1022489   0.2201148
   1.3185313   1.0024346   0.2533460  -0.1521944  -1.0586997   0.8953933
   0.3158523  -0.2497023   0.1165125   0.0659949  -0.1907849  -0.6511952
   0.9182801  -0.4638065   1.9106916   0.0296781  -0.0193208   0.0003152
   0.7111340   0.6911395  -0.3014443   1.4352977   0.4661623  -1.0150505
   0.1537445   0.0066959   0.0606883   0.9843895  -0.3296621  -1.3032990
   0.8837174   1.4445195   0.5261338  -0.1266992   0.0338006   0.4028296
  -0.5908016  -0.0926784   0.5440858   0.9029231   0.4481412   0.8638537
   0.0112294   0.1504133  -0.1258011  -0.5150748  -1.2945954   0.8256131
  -0.8362809   1.6115688  -1.1675202   0.0925809   0.0148872  -0.0862797
  -0.3353785  -1.8847347  -0.9607210   0.6661274   0.0220711   0.4881392
   0.1354174   0.0640464  -0.0472286   0.5353477   1.7801565   0.5257727
   0.9455020   0.4126062  -0.8833454  -0.0086781   0.0764089  -0.1288401
   1.9001344  -0.3728246   0.2298546  -0.1283931  -0.3210193   0.7886945
  -0.2991870  -0.2924410   0.1534276  -0.0620112   0.7107887   0.2249687
   0.6692231   1.0632932   0.3427670  -0.1080454   0.1758137   0.2352626
   0.1179021   0.8914695  -0.1718554   0.5122182   0.6561990  -1.3817979
  -0.2334422  -0.0225572   0.0900857   0.7341919   0.0898196   0.2681885
  -1.4597460   0.0626108   0.1664895   0.1936567   0.0722998   0.0728795
   0.0811671  -1.1997046   0.0765463   0.1442847   0.9254386  -0.3871417
   0.0393616   0.0843541   0.0215038   0.2239660   0.5737810  -0.8158481
   1.0503021  -0.2290479  -0.0805460   0.1605016   0.0299267   0.0455549
  -0.3492369  -0.7389319   0.5091271   1.0679852  -0.1164197   0.9690832
   0.3543534   0.4139075   0.1402471  -1.3996900   0.1346560  -0.6212564
   0.5717727   0.3588256   0.4737834   0.2217953  -0.2596856   0.0621288
   0.8119109  -1.0125355  -0.9447053   0.4784812   0.2191206   1.0325156
  -0.1493127  -0.0630671   0.2197606   1.2802607  -0.1025207  -0.5650935
   0.2038568  -1.0869987  -1.8309748   0.0317536   0.2688000  -0.0311407
  -0.3444890   0.4790685   0.9424621  -0.3071070  -0.2198390  -0.3789135
   0.0243573   0.2571236  -0.0576264  -0.9275061  -0.0654717  -0.5025625
  -0.3009349  -1.4744849   1.0993558   0.0393146   0.2764353   0.0473242
   0.9302391   0.1220936  -0.4862914  -0.7300205  -0.1507945   0.1688679
  -0.2136188  -0.0405613   0.1086627  -0.7738408   0.0704950   0.3665577
  -0.0430769   0.2875753  -0.3860735   0.1314958  -0.0330793   0.0320202
  -0.1314868   0.2631419  -0.7392499  -1.2860881   0.1816620  -1.5095209
  -0.1174378  -0.0383820  -0.0305375  -0.6252595  -0.2394608  -0.1180020
  -0.3031999   0.1472480  -0.6557472   0.0216566   0.1080347  -0.0749525
   0.1349088   0.2244681   0.8242073  -0.9907867   0.7419121  -0.9583215
  -0.2720974   0.0449348  -0.3130886   0.2074053  -0.3361280   0.8107767
   0.1378686   0.0443720  -1.3856702  -0.0757184   0.1708816  -0.0948981
  -0.4399651   0.7820857   0.4244586   0.1894901   0.9456666  -0.1424882
   0.1382044   0.2001382   0.0814282  -0.2382933   0.3361305   0.5150315
  -1.3495070  -0.0621407  -1.4171181  -0.1058765   0.1454305  -0.1171022
  -0.2075816   0.2676999  -0.9112483  -0.2211239  -1.3712325   0.7277158
   0.1159239   0.1124214  -0.0864930  -0.3192493  -0.4457045   0.6464067
  -0.2989920   1.6980428   0.3610990   0.0325202   0.0614007   0.0187916
  -0.0571233  -0.4263971  -0.0279592  -1.3832902   0.8416512   0.4975800
   0.0241803  -0.2063351  -0.1716172   0.0687844  -0.1282282   1.2565815
  -0.3568663  -0.9343441  -0.4572925  -0.1513357   0.2369124   0.0223957
   0.6560395   0.4424587   0.5181636  -0.2067897  -0.0734718  -0.4569443
  -0.1325913  -0.5632876   0.2651471   1.0735612  -0.3345219   0.3895700
   1.0051003  -0.2274422  -0.7007810  -0.2323997   0.0933489   0.2456363
  -1.1895233  -0.1391890   0.7927415   1.3089280  -0.2646578  -0.3487369
  -0.1336980   0.1821018   0.1136194  -1.3415494   0.4321845  -1.4088029
  -0.0828033   0.3732920   1.4789672  -0.1874412   0.2447143   0.1616905
   0.1749595   1.5471555  -0.0862588   0.4909678   0.1178913   0.3150406
   0.0596463   0.2338262  -0.1125082   1.2013435  -1.0449700  -1.1822084
   1.2283746  -0.2379758  -0.3461857   0.3544855  -0.0590512  -0.0935382
  -0.0325791   1.2272913  -0.1471245   1.5545807  -0.9794163   0.1663070
   0.2262367   0.2867358   0.0474445   0.9616737   0.2100253   0.2845654
   0.0637270   1.1077963   1.7514836   0.3706985  -0.0718493   0.1737568
  -0.0326921  -0.3549657   0.4557213   0.5507820   1.7940230  -0.4403723
  -0.0834944   0.2105421  -0.1132614   0.0605966   0.6336035   0.0796128
   0.0875998   0.2592594  -0.3620360  -0.2492659   0.2044610  -0.0367052
   0.0072122  -0.2837193   0.4438842   0.0478602  -0.1360627  -1.5486795
  -0.0748184  -0.0720733   0.3233497  -0.7418334  -1.3541741   0.1729882
   0.7760503  -1.3261546   0.6841349   0.0725976  -0.2205184   0.0342832
  -0.5360438  -0.5158468   0.2519097   0.3274854   0.6155388  -0.5757868
  -0.3391099   0.1291760   0.0669527   0.2183124   0.0989459   0.4439305
  -0.8268248   0.4363742   0.5206729  -0.0821260  -0.2622465  -0.0849193
  -0.3287383   0.5142868   0.4914013  -0.0333411  -0.8107210  -1.5783117
  -0.2523687  -0.1097159  -0.0096341   1.8630035  -1.2257075   0.6791750
  -0.7627528   0.2426281   1.6103302   0.0410817  -0.1740551  -0.2013356
  -0.4813401  -0.9874044  -0.0712683   0.4187535  -0.0123318   0.5171011
   0.1577763   0.1635751  -0.0288623   0.4002841   0.5908102  -0.1518950
   0.3622414  -0.5421875   1.0086623  -0.0315385  -0.0483115  -0.5425467
   1.5829020   0.7439568  -1.1976646  -0.7407174  -0.9429833  -0.5103300
   0.3279466  -0.0972762   0.0337927  -0.6683099  -0.3652158   0.6258299
   0.3507582  -0.9377500  -0.1213542  -0.5876483   0.1226059   0.0770779
   2.1970396  -0.5229996  -0.0235506   0.6282850   1.5794400  -0.1196705
   0.0911497  -0.1635097   0.1227541   0.3559822  -0.3881851  -0.0331246
  -0.1176035   2.7414076  -2.0414569  -0.1853537   0.2592686  -0.0760960
  -1.4710091  -0.7287469   0.3871499  -0.6678731   0.6454319  -0.9217581
  -0.0860811  -0.0147521   0.1656078   0.1272107  -0.5930876  -0.2647268
  -0.1331982  -0.2696359   0.7782652   0.0666683  -0.2649314   0.3458435
  -0.3399273   0.0777000  -0.5505963  -1.4127882  -0.9372737   0.7607647
  -0.0783704  -0.0245930  -0.1256996  -0.7670534   0.7109749   2.9641898
   1.4956192  -0.5279881  -0.9816431  -0.0769481  -0.2917245  -0.0203610
  -0.6826236  -0.8256816   1.5759510   1.8785356   0.4534523  -0.3384970
   0.0367016  -0.1584466   0.1500392  -0.6710303   0.4509698  -0.3008210
  -0.9035639  -0.0311990   0.2784952   0.2047451  -0.2562401   0.3096744
   0.3264450   0.1021746   0.2741380   0.2330505  -0.1055545   0.6737353
  -0.0767103  -0.1464697   0.0540793   0.0287207  -0.9599749   0.0527896
  -0.7838477   0.6747186   0.0063224   0.1285057  -0.2323351   0.0553925
   0.5266134   0.7530719   0.8535171   1.0287246  -0.3395258   0.6340038
  -0.0409972  -0.0915210   0.0884872   0.9188095   2.4902873   0.0098311
  -0.9877168   0.8959709   1.0067507  -0.2437873   0.0316752   0.0506807
   1.7843899  -0.3786784  -2.5057230  -0.2621221  -1.1843201   0.3871721
  -0.2220838   0.1023506  -0.3224286   0.5495663   1.2334169   0.1181716
   1.3001851  -0.5800270  -0.6454793   0.1533962  -0.1028519  -0.1499159
  -1.5816162  -0.5280630  -0.2046200  -0.4460752  -0.5630015   0.8715323
  -0.0162170   0.0189376  -0.2326208   1.4443213  -1.6260976   0.6791756
   0.0667887   0.2921484   0.3801804  -0.2161844  -0.2284936   0.0295006
   0.4944366  -0.3565022  -1.9971974  -1.3222234   0.1207943   0.8010253
  -0.0488752   0.1846899   0.1168083  -0.7310221  -1.1430143  -0.0839363
  -0.0078933  -0.9946524   1.6484181   0.0807605  -0.0443037   0.0722320
   0.8691201  -0.6959694   0.2999424   0.2520942  -0.3897096   0.4506326
  -0.1365527   0.0754712  -0.0371419   0.6759403  -0.4248470   0.1443063
  -0.4879613   0.6424352  -0.5736263  -0.4882323  -0.1307126   0.0578128
  -0.7665642   1.4985852   0.1522117  -0.1139464  -0.4332112  -1.1515983
   0.0344499  -0.0271475   0.2385210  -0.0197419  -0.1059438   0.1783224
   0.7069631  -0.5118253   0.4169647  -0.0330794   0.1088140   0.0678384
  -0.7321687   0.5492898   0.5131478   0.3745435  -2.0437412   0.5986739
   0.1570694   0.2894773  -0.0475494  -1.0651970   0.8847929   0.2515029
   0.7501635  -0.0774243  -0.5079992  -0.2656992  -0.2584840  -0.1534991
   1.0993198   0.7689133   0.4457951  -1.6082107   0.3428496  -0.0900172
   0.2066992   0.2706671  -0.2334333  -0.3814725   0.2037963  -0.7459579
   0.6069375   0.7062443   0.6422068  -0.0488600   0.1000973   0.0412378
   0.5032064   1.2977127   1.2807568  -0.5415866  -0.2409681   0.7006131
  -0.1411975   0.1083296  -0.2490593   0.0397766  -0.5359408  -0.6183701
  -0.7834519  -1.9872965   0.9145362   0.0114532  -0.0509796  -0.1578179
   0.2332553  -1.1975991  -0.7690853   0.4128519   2.0879445   0.7075920
   0.3346769  -0.0765245   0.1702410   1.4689926  -0.6976367   0.4657701
   0.5663994   1.2936571  -0.1868173  -0.0015207  -0.2760444  -0.2285578
   0.0858752  -0.2922540  -0.5653995  -1.1256933   1.4986733  -1.9112797
  -0.2366969  -0.0305524   0.0148244   0.3880394  -0.0585112   1.2990793
   1.6124194   0.8587561   1.5497563  -0.1495376   0.2779338  -0.0089960
  -0.3684292   0.9514663   0.6410825   0.2210063   1.0651493  -0.2933876
   0.0729752   0.0574211  -0.2795774   0.8364713   0.5923651  -0.8212489
   0.5780361  -0.6804059  -0.8163481  -0.2139290   0.0429380  -0.4430919
   0.4373944  -0.6014132   0.6942441  -1.4103321  -1.8205585   0.6779406
   0.1409465  -0.0649037  -0.0042442  -0.6153034   0.2901510   1.1254395
  -0.6203133  -0.6641270  -0.1154405  -0.1677307  -0.2801042   0.1226234
   0.3629863   0.0860840   1.0813969   0.1772805   0.8569036   0.5703203
  -0.0686163  -0.1544350   0.3246397   1.2723289   0.1741871  -0.2742296
  -1.1645228  -0.6454318  -0.5012360   0.1402692   0.1519212   0.0356281
  -0.1243609  -0.6400264  -0.8393963   0.5239857  -0.3789668   0.4964443
   0.1321725   0.0931976   0.2943484  -0.1596743  -0.3642997   1.6208723
   0.9953525  -2.3515697   0.6282090  -0.0240673  -0.0375301   0.1235627
   0.5833796   0.1482415   0.9821503  -0.5280088  -1.3109992   0.4004263
   0.0528721  -0.1839656   0.3829621   0.1733927  -0.7545596   2.0464358
  -1.0661571   0.2284891  -0.4016216   0.0567982   0.0377525  -0.0272635
  -0.9748207  -0.6060272  -0.7615124   1.7538220   0.2431541  -0.0620312
   0.2389596  -0.2734807  -0.0185383  -0.7008194   0.3855983   1.1921663
   0.9125793  -1.4245696  -0.4317090   0.1900181  -0.0011564   0.2634952
  -1.1191766  -0.4206949  -0.4803540   0.9303978  -1.0019182   0.4634237
   0.0996788   0.2456380   0.1904065  -0.2199441  -0.1059252  -0.7883331
   0.5741163  -1.3863993  -0.8111948   0.1796077   0.0414440   0.1234378
   0.6168456   0.7285698  -0.2929507  -0.5788186   1.3811713  -0.3580141
   0.1386833  -0.1158149  -0.0111005  -0.3234985  -0.2536187  -0.6155837
  -0.4442611   0.0881753   0.1317880  -0.1053596   0.2947002   0.5213526
   1.5723478  -0.7608569  -0.0793673  -1.8437757   0.7269187  -0.6207861
  -0.0191375   0.1592660  -0.0621454   0.1065125  -0.6285927  -0.3096304
  -0.1903604  -0.5225065   0.9723565  -0.0856015   0.0966000   0.1609016
  -1.3831867  -1.6647997  -0.1067510  -0.0686708  -0.9296485   0.1653108
  -0.3493427   0.0016971  -0.4393137   0.1989679  -0.2039915   1.1746215
  -0.7172701   0.1892174  -0.1759164   0.0932098   0.1027124   0.1216863
  -1.1378158  -0.0567635  -1.2955755   1.5729265  -0.2842444  -0.6410871
  -0.4127918   0.1245553   0.0227484   0.1480874   0.9149143  -0.5652893
  -0.0438655  -0.9111652  -0.5609946  -0.3707428  -0.1910563   0.0126330
  -0.7299372  -0.4011349  -1.5439864   0.2135194  -0.2208813  -0.1260313
   0.4311409  -0.2556919  -0.3296578  -2.0876527   0.1414658  -0.0812445
  -0.5697623  -0.6475029  -0.7377931   0.0307980  -0.2827917  -0.2154619
   1.6716757  -0.0443413   0.7413016  -1.4256554   1.0357164  -0.0959688
   0.3122848   0.3678955   0.3043649   0.4623530  -0.7497930   0.4404963
   0.4896134  -1.0844415   0.8571640  -0.0860585   0.3018422  -0.0012856
   0.7469490   0.8948402  -0.2112397  -0.3576212   0.1647195   2.1271152
  -0.2427092   0.2334514   0.1407512  -0.6200272  -2.3222461  -1.3735582
  -0.2367592  -0.1905335  -0.2586117   0.0503053   0.0042644  -0.4789230
  -0.1022054  -0.9132463  -0.3819297  -0.2689600  -0.5979358   0.3881114
   0.3570851  -0.1117063   0.0890599  -1.2317271   0.0012931   1.2859491
  -1.5840114  -0.2854871   0.2798574  -0.0176888   0.2246926  -0.1026075
   0.2980157   1.6121211   0.2133419  -1.2872326   0.0631806  -0.1935870
   0.0734786  -0.0636477  -0.0537481  -0.4695051  -1.1639246  -1.0536209
   0.9330936   1.3436292   1.8357348  -0.2499530  -0.1877412   0.0909078
   1.3549856  -0.5759621   0.9424136  -0.2848500  -0.3520492   0.1561287
   0.0905637  -0.1102704  -0.1013121  -0.0594833  -0.2628467  -0.2400757
   0.4797451   0.9650946  -1.0416114  -0.0456145  -0.2364693   0.0718247
   1.6724206   0.0305382   0.0766166  -0.0458188   0.3052453  -0.6257246
  -0.3832043   0.0644618   0.1812423   0.0917457  -0.8619037  -1.0542837
  -0.3729893  -0.1974852   0.9182605   0.1583215  -0.2214075  -0.0926802
   0.6168599   2.0707049  -0.5246083  -0.2854824  -0.9933227  -0.6961221
   0.2797361   0.0858890  -0.1174887   0.3478153   0.8558304   1.1959217
   0.1622502  -1.1115012  -0.7255400  -0.2603679   0.2099404  -0.2637326
   0.3423133  -0.6508543   0.0519501   0.2660014   0.6234221  -0.1119242
   0.2821382   0.0289639  -0.4664382  -0.9420313  -0.5754306  -0.3060100
   0.8359879   0.4462800   1.0450144  -0.0233352  -0.0014980  -0.0957074
  -0.4766414  -0.9417244  -0.3250233  -1.5083072  -0.8577246   0.8833209
   0.0319993   0.3432048  -0.0866981  -0.4053634  -0.8862619  -0.3758407
   0.4807397  -0.0651382   0.4988056  -0.1404306  -0.0405516   0.4803056
  -0.2017093   0.3226423  -0.8143295   0.7390332  -0.2342963   1.6045840
  -0.0188337   0.0972067   0.3035866   0.0598389   0.4629720   1.7143152
   0.8716800  -0.3849409  -0.4759834  -0.0901500  -0.3929809   0.0167590
  -1.0749753  -0.3749025  -0.2870887  -0.7894486  -0.0326167  -0.3201633
   0.1391135  -0.0282343  -0.0301472  -1.2568346  -0.0753542   0.4575096
   0.7888395   0.5724996  -0.4558037   0.0436489  -0.0379062   0.1004801
   0.3569943   0.7312846   0.7757598  -0.5851851  -0.2214231   0.0649416
   0.0139306   0.1251456  -0.1812804   1.2118378  -0.3256545   0.1399894
  -1.0636685   0.6191797   0.4290717  -0.0382118  -0.0416858  -0.0613458
  -1.7518657   0.0852107  -0.9594263   1.7583998  -0.6949630  -0.7112466
  -0.0394411   0.3918099  -0.2235447  -0.2986387  -0.5399017   0.3245565
  -0.8274996  -0.9090320  -1.1182916   0.0277508   0.3422092   0.0818824
  -0.5482524   0.1695291   0.3942392   0.1116660   1.5700299  -0.1741483
   0.1973070   0.1324983   0.1756764   0.9473988  -0.9074579   1.0129478
  -0.5747968   0.3950302   0.1685288   0.0174043   0.4503523  -0.0277729
  -0.3326330  -0.7193986  -0.3573245  -1.2080926   0.8488449   0.1249933
   0.1235985   0.3407398  -0.4404978  -1.0108055   1.4254210  -0.0070877
   0.2743206  -0.7453552  -0.4250846  -0.2822495  -0.4662609  -0.1637485
   1.0026650  -0.0207673  -0.6291121  -1.3787760   0.4592739   0.0561068
   0.1346746  -0.1663502  -0.3088262   0.4876984   1.1735107  -0.7471899
   1.5893415  -0.3395245  -1.2480701   0.1442432   0.0901931   0.1875863
   0.3777587  -0.4974679  -0.3673445   0.1289444  -1.4302282  -0.1981483
  -0.0216419   0.3249243   0.0725338  -0.2396259  -0.5889402  -0.0047174
   0.1168065  -0.2632854  -1.0625073   0.0201366   0.1398630  -0.0231466
  -1.2039931   0.7815080  -1.5575528   1.1218096  -0.8639216   0.0928283
   0.2083710  -0.1074616  -0.0384998  -1.3597778   1.3000778   0.6906394
  -0.1508057  -1.1842325  -0.8097131  -0.0156907   0.2170859  -0.2787326
   0.7344152  -0.8852980  -0.7319518   0.9984944   0.5354713  -0.5097682
  -0.2037403   0.0805592   0.0390490  -0.6629563   0.4266556  -0.3681505
   2.3270562  -0.2143532  -1.0504024   0.0266241  -0.2748212   0.1862400
   0.2083924  -0.1791027   1.9533274  -0.4139127  -1.1005657  -0.2673653
   0.0566560  -0.3682750  -0.0603822  -0.6089910  -0.4791983   2.4202578
  -0.3217359   0.1078663  -0.3095001   0.3096495   0.1181234  -0.2523690
  -0.0433180   0.6447808   1.1812532  -0.8023923   0.1891754  -1.5375731
   0.0618350   0.0219515  -0.1092357   2.8803964   0.5319491  -0.5062571
   1.2050723   0.4356635   0.6395948   0.0130580   0.0907248   0.1012458
   0.2115788   0.0119469   0.5038501  -1.5520051  -0.5584863  -0.9049844
  -0.0733938   0.1583157  -0.1381837  -0.4129102  -0.2360395   0.6032879
  -0.2946068   1.1024405   1.4282696   0.2330905  -0.0998377  -0.0360886
   0.6158619  -0.4706814  -0.4301979  -0.3223680  -0.0961464   0.0169502
   0.0878052   0.1675292   0.2049575  -1.7410001   0.8286483  -0.0684617
  -1.0082963  -0.5080508   0.5731722   0.1248308   0.0213638   0.2571783
  -0.0782511   0.3219374  -0.5303931   0.0982352   0.8938173   2.3326557
  -0.0061948  -0.2123567   0.1916106   1.0091615   0.3727416   0.2465366
  -1.7847514   0.1839715  -0.5563653  -0.4057330   0.0091757   0.2717203
  -1.8342787  -0.6900350  -1.3480821  -0.5216700   0.4653896  -0.9988835
   0.1101149  -0.0286780   0.1522250  -0.6325638   0.4997417   0.3833046
  -0.0422996  -0.3424485   0.5313968   0.5795126   0.0326550  -0.0917472
   1.6463223   0.9997024  -0.6420121  -0.3097290  -0.3158220   0.7388321
   0.1871223  -0.1647015   0.1250408  -0.4648938   0.7320364   0.4768695
   0.9130635   0.2951083   0.4439555   0.2008529   0.2147407   0.1873958
  -0.1160017  -0.2138164   0.7327451   0.3774353   0.8653972   0.3307166
   0.2519528   0.2249040   0.0734665   0.4060772   0.5635924  -0.5130991
   0.3115326  -0.5418388   0.5461279   0.0502045   0.0185968   0.0230939
   0.4129849  -0.5812393  -0.6541776  -0.3873636   1.4908446   0.1865119
  -0.0359797  -0.1741131   0.2754053  -0.5346464  -1.3457335   0.6277319
  -0.4257107  -1.8188151  -0.9505302   0.0948871  -0.1647189   0.1072725
  -0.9486052  -0.2038936  -0.0169441   0.0737988  -0.1730142  -0.0982682
  -0.1548742  -0.6479691   0.1969667  -0.2463117   1.3069099   0.7922923
  -0.7011703  -0.4436609   1.1587616   0.0787913   0.0591974  -0.2708595
  -0.5652972   0.5056290   0.1644568  -2.6191690  -0.1071250   0.4484484
  -0.1085906  -0.1117877   0.0098097  -0.2388540   0.2173327  -0.8768831
   0.5725242  -0.8266202  -0.6599494   0.3256863  -0.0393172   0.1180232
  -0.5228245   0.0958319  -0.0923298   0.6253444  -0.7427463   1.5298659
   0.1756062  -0.2328842   0.0846841  -1.6923403   1.3155584   0.2844741
   0.4164571   1.7499832   0.9050032   0.3100578   0.1253915   0.0921379
   0.1747007   0.7941564   0.5336773  -0.2245045   0.2101225  -0.2207443
   0.0533947   0.0155040   0.1613231   0.1894189  -0.0580459   0.1230984
  -0.1203138  -0.3650859   0.2458841  -0.2158381   0.1251144  -0.0102058
  -0.4360092  -0.5173365   1.0977275   0.3762576  -0.7278057   0.2840942
  -0.2684542   0.1844690   0.1168730   0.1521568  -0.7217742  -1.2084922
  -1.1783687   0.1916787   0.4847524  -0.0283957  -0.0680983  -0.1543150
  -0.4695556   0.4880030   0.2945759   1.3700806   1.3250514   1.7200013
   0.0208959   0.2696895   0.1404834  -0.9636371  -0.9487935  -0.7123396
  -0.4310237  -0.3421231   0.1792269   0.0330979  -0.2756450   0.0034184
   0.1641396  -0.0744091   0.4915941  -0.7224132   0.1056708   1.3943959
   0.1351390  -0.0750335  -0.1016994  -0.2186252  -0.9112666  -0.2566512
   0.5813534   0.0366046   0.2903445   0.0492317   0.0942819  -0.2070477
   0.8422473  -0.4375561   0.4092118   1.8393883  -0.4046646   0.3565311
  -0.0731111   0.2431608   0.0894565  -0.4595170   0.2291773   1.1636362
   0.8331076   0.4642784  -0.3822608   0.0346138  -0.0474202  -0.0086639
   1.5495541   0.2152961  -1.2740043   0.9934953   0.2763232   0.5365581
   0.0876171  -0.3381439  -0.3323721  -0.5150240  -1.1760383   0.4968715
  -0.0303354   0.3496331   1.0236737   0.0585200  -0.1080031  -0.0975950
  -1.6200764   1.4656004   0.4077004  -0.3488303   0.2731646   0.2175857
   0.2116755  -0.0727558  -0.0561128   0.3687868  -0.4678786   0.0298032
  -1.4041587  -0.9115520  -0.6356022   0.0094099  -0.2118446   0.0011950
  -0.6804760  -0.2116586  -0.4361261  -0.5770818  -0.5238476   1.8451037
   0.0489833   0.0642027   0.1484498  -1.1598642   0.7079850   0.3305953
  -0.1543554  -0.2138900   0.4250385   0.0612547   0.0863445  -0.3712690
  -1.6765039  -1.2659911  -0.3042799  -1.4386753   0.5683633  -0.6437013
  -0.0259473  -0.1817902   0.1573652  -0.7535412   0.0403535   0.1373186
   0.2761860   0.1682333   0.0932349  -0.0077591  -0.2198191   0.2481446
   0.3945783   0.4748655   1.3589704  -0.5237366  -0.3834347   0.0291425
  -0.2034454   0.2203635  -0.2579289  -0.1462695   0.6845030   0.0325052
  -0.7107889  -1.9517463   0.0365653   0.0653323  -0.3984389  -0.1785041
  -0.2941422   0.1258588   1.2293687   0.4754781  -0.3527961  -0.5103298
  -0.1419715  -0.2523541  -0.1234716   0.2668047  -0.6810001  -0.8940364
   0.4850135   0.2292295  -1.3907849   0.0747677   0.3243733   0.0193497
  -0.5866301   0.6460677  -0.3185375  -0.1460706   0.3701106   0.3177403
   0.3063269   0.5707774   0.3036795   1.1609535   1.2344544   0.2390686
  -0.4874239  -1.1076421  -0.7082743   0.2269247   0.1465320  -0.0951172
   0.9212041   0.8680909   1.5822960  -0.5840173   0.0756356  -0.5206407
   0.0019039  -0.1046826  -0.0561620  -0.1401113   0.5465131  -0.7359641
   0.2158364  -0.7230259   1.3381790   0.1209993   0.1294857  -0.1206406
  -1.7745552   0.2288174   0.9725676   1.1278465   1.1579443   0.4745935
  -0.1337888   0.3223721  -0.2804838   0.3416936  -0.1284584  -0.6123375
  -0.1169897   0.7401744  -0.9248465  -0.1308461  -0.1177598  -0.1913212
  -0.3737533   0.2920682  -0.9924290  -1.1440339   0.4213420  -0.6665989
  -0.0886271   0.0903346   0.1256389  -0.9380599   0.8955518  -0.4716267
   0.5095024  -0.0535303   0.1296452  -0.3071759   0.1803980   0.0561133
  -1.3251325   0.5711051   1.5493829   0.4058095   1.1157073  -0.2499566
   0.2448338  -0.0254164  -0.1021619   0.0086155   0.7067535   0.4075810
   1.4092619  -1.7264085  -0.0611764   0.1178524  -0.2931771   0.0460732
   0.0518030  -0.5071186  -0.9967464   0.0755780  -0.8398299  -0.2821891
  -0.1538630   0.2042138   0.0837064  -0.2576344  -0.1511574   0.3362749
  -0.5758678  -0.1897197  -0.5177646   0.0062865   0.0333810  -0.0439119
  -0.0642022   0.3950412   0.3622409  -0.1708571   1.4093833  -0.5106370
  -0.0896938   0.2832386  -0.0391000   1.6868314  -0.9014602  -0.3010399
  -0.5327883  -0.4291030  -0.4694526  -0.0030659   0.0866348   0.2573316
  -1.1296160  -0.3255827   0.4600378  -0.4516349  -1.2403816   0.0657238
  -0.1784779   0.3374929  -0.0565055   0.4880452  -0.5263066  -1.3691914
   0.2046073   0.7700557   1.5621418  -0.1977704  -0.0844433  -0.1380448
   0.1077596  -0.1020451  -0.2273377   0.0214818   0.7921505  -0.7283860
   0.1776498  -0.1214996   0.0088016   0.2876336  -0.1516637   0.9097422
  -1.3955700  -0.5997311  -0.6507127   0.0850867  -0.0560960   0.0085980
   1.8186116  -0.4510635  -1.9091030   1.7906314  -0.4850564  -0.0180694
   0.1905099   0.0902207   0.2387112   1.0209863  -0.1209369   0.3060561
  -0.6649279  -0.2836190  -0.4677245   0.2046552  -0.1078669  -0.2588324
  -0.2378501   1.2250274  -1.0717176   0.3383794  -0.6608249  -0.2579105
  -0.3098983   0.1517839  -0.1346567   0.1894009  -1.3377604  -0.1376080
  -0.3619510  -0.1333573   0.8064892  -0.2650897  -0.2865956  -0.1519184
  -0.2408541  -0.5452026  -1.9616491   0.6105134  -1.3107547  -0.1733671
  -0.0787630   0.1133927   0.0296637  -0.6344542   0.2910329   0.4923173
  -0.4425199   1.5602161  -0.0201950   0.1051477   0.3196957  -0.0200527
   0.7115099   1.9138781   2.4657321  -1.7006214  -1.1774856  -0.7745295
  -0.2909942   0.0871106  -0.3133318   0.7996314   0.6202887  -0.0036211
  -0.2877989   1.3053548  -1.0031885  -0.0843737   0.1522631   0.1597719
   1.0296030   0.3508202   0.3015765  -1.9501853   0.4661099  -0.6518687
  -0.2054988  -0.1550490  -0.2582389  -0.5192633   0.9986482   0.1793105
   0.7792338  -1.0916717   0.6350976   0.2892411  -0.1292098  -0.0687045
  -0.5151690   0.0487940  -0.3241686  -0.1076437  -0.1298827   0.0622732
   0.0665553  -0.2867019  -0.3407570  -0.9635656  -0.6554674   0.6867095
  -0.4728789   0.3842733  -0.6448287  -0.2231835  -0.0928255   0.2051300
   0.5519439   0.9898052   0.3279870   0.0911004   0.9691025   0.7928389
  -0.0874633  -0.1966131   0.3623651   0.7935095  -0.3330095  -1.0724144
  -0.7530785   0.8240873  -1.9093843  -0.0178253   0.2234352  -0.0370229
   0.5712557  -0.3495758  -0.1967575   0.0768681   0.6246763   0.8157473
  -0.0738526  -0.2799474  -0.0095770   0.1792843  -0.7043642   0.1725708
  -2.8887568  -0.1500338  -1.0947440  -0.1482510  -0.4014648  -0.2162317
  -1.2716910  -0.6424181  -1.7743129  -0.5539227  -0.7009922   1.3513086
  -0.2092357  -0.1402416   0.0760617  -1.0591063   0.1365498   0.6858342
  -0.9996805   0.5243461   1.3566608   0.1217283  -0.0580403   0.1305040
  -0.6080516   0.2589510   0.2368622  -0.3032961  -0.1810107   0.1515207
  -0.2835411   0.2234076   0.0269098  -0.5364263   0.8100025   0.6771237
  -0.2375777   0.4218625  -0.6340792   0.1717922  -0.0006447   0.1823536
  -2.6403162   0.0435097  -0.7883355   0.3581730  -1.5364851  -0.0908133
  -0.0307169   0.2117726  -0.0243231   0.3369942  -0.2923471   0.4554643
  -0.6510018  -0.2505899   0.9536824   0.3002747  -0.0646093   0.0194645
  -1.1537939  -1.5721604   0.4286990  -0.6793984  -0.7738601   0.0879682
  -0.2584582   0.2970257   0.1212514  -1.0236356   0.5671763  -1.0919124
   0.6601350   0.6851089   1.6872016  -0.0141767  -0.0067633   0.2503327
   0.2317327  -0.3930613  -0.9031801   0.1052522  -0.3296458   0.5478448
   0.2057677  -0.2525414  -0.0657312  -1.3758985   1.1466249  -0.5009720
  -1.7174239  -0.9222174  -1.1446097  -0.1694238   0.0681211   0.1212142
  -0.2807319  -0.3804559   1.3643911  -0.1472223   1.2327287  -1.6557020
   0.0676631   0.1285920   0.0710560   0.3403408   0.3192248  -1.1159066
   1.6388496  -0.1231468  -0.5670491   0.2182010  -0.2481246  -0.0557850
  -2.2258563   2.0072525   0.4581465  -0.9112624   0.3898217   0.4125730
   0.2662872  -0.0345646  -0.2960168   1.2068225  -0.0342157   0.5844855
  -0.7398934  -0.5980759  -0.0882461  -0.0140424   0.1655063  -0.1223530
   0.0943583   0.5811706   0.4622780   0.2034069  -0.1633652   0.6493934
  -0.0264223  -0.3500449   0.0834575   1.1053454  -0.0285251  -0.6979896
  -0.1469097   0.2373550   0.8975609   0.2894222  -0.2463295   0.1147333
   0.3983267  -0.3521413   0.2806576   1.5600207   0.2139560  -0.0983453
   0.1044991  -0.2530300   0.1617426   0.1483314   0.0217467  -0.2104865
   0.7564191  -0.0128808   1.0495335   0.0926692   0.0268948   0.3246813
  -0.9618842   0.2952393  -0.3548164  -0.3238478   0.2527897  -0.3292693
  -0.0646182   0.0194183  -0.0533376   0.0123582  -0.4982575   0.6389654
  -0.5335085   1.2920905   0.6669488   0.0057990  -0.1207098  -0.2397979
   1.0562836  -0.7521544   0.2763600  -0.4814294   1.2759739   0.5263139
   0.0202038  -0.2028020   0.3515786   0.1773968  -0.2224654  -0.1318125
   0.0421722   1.1381902  -0.2072476   0.0941707  -0.0350232  -0.2346342
   0.5853170  -0.7846751  -1.2679085   0.3403614  -0.5935642   0.8906124
   0.3438831  -0.1785291   0.1210112   1.4173287   0.1737386   1.3793060
   0.1382611   1.1451844  -0.3716399   0.3724959  -0.3960981   0.1225785
  -0.9430248  -0.5817537   0.5761667  -0.1168555   1.2775909   0.1487891
  -0.1971053   0.2250467   0.4094296  -0.9496226   0.4160367   1.1986301
  -0.8219454   0.4402281   0.6639270   0.1857277   0.0234373   0.1336516
  -0.9219157   0.1396093  -0.0253919   0.4036391   0.6811421  -0.5479531
  -0.1839952   0.0995199  -0.1084018   0.4452536   0.0605322   0.7629933
  -0.8375342  -0.5661731  -0.6896853   0.0453744   0.0921762   0.0818182
   0.0066462  -1.6316611   0.6039611   0.5287898   0.2691014   0.3432336
  -0.0174232  -0.0077794   0.0014712  -0.1666652   0.1790439  -0.3395855
   0.6186101   0.9415202  -0.1161733  -0.2075667  -0.1420107  -0.1193953
   1.4867390  -0.5115256  -0.2984607  -0.3067053  -1.0461574   0.0475700
  -0.2019203  -0.0217887  -0.0229285  -1.0509497  -0.3396812   0.2262376
   2.2240062   1.1578568  -0.8607069  -0.1362857   0.0448626  -0.1100209
   0.9511350   0.3663256  -0.5017209   0.6788484  -0.9792640   0.9631573
   0.0824030  -0.2916875   0.1648663  -0.1066520   0.4780652   0.6057437
   0.6365823   0.9969041  -1.1031297   0.2809253  -0.0552763  -0.0798895
  -1.7882529  -1.0980324   1.1145067  -0.2057208   0.7442644  -0.3428949
   0.3094844   0.0233021  -0.2041254  -0.9584513  -1.5906923  -0.3699783
   0.6471779   0.3975772   0.9719905   0.0319551   0.1421859  -0.0395106
   1.5248251   0.6136869  -0.1581386   0.4564250   0.7104379   0.1976507
   0.3406765  -0.0178369  -0.1051178  -1.0492792  -0.8554928   0.4244106
   0.2954938   0.9454109   2.3116922   0.4830081   0.2652119  -0.1018080
   0.7362941   0.9958594   0.6153207  -0.5762877   1.5168171  -0.6816671
   0.2393809  -0.3461067   0.1595081  -0.3886171  -0.2202790  -0.5163244
   1.0963939  -0.5400487   0.3180461   0.1550642  -0.4437730   0.0507265
  -1.3070943  -1.1698536   0.7027713  -0.3470871   0.2656093  -0.3610305
  -0.0083322   0.2962567   0.0845214  -2.8970582  -0.5033564  -1.0419992
  -0.5467626   0.3167743  -0.1930653  -0.0268293   0.3741033   0.1694433
  -0.1888252   0.7105707  -0.5538091   0.7693819  -0.9955084   0.4206631
   0.2004026   0.1631930  -0.1364928   1.2837501  -0.6393176   0.0030671
   1.0378761  -1.7029051   1.0510472  -0.0436480   0.0617914   0.2045388
   0.1352330   0.7361789   0.3965950  -0.1112787   0.1969094  -0.3837836
  -0.0905595   0.1253205   0.0370751   0.3232870  -0.0691353  -0.5109335
  -1.2262905  -0.9912190   0.0821333   0.1295065   0.1422983   0.1447009
   0.7785436   0.3181084  -1.0959632  -0.3213698  -0.0951873   0.3575154
  -0.1584962  -0.3624134   0.0310943   1.2986927  -0.0990668   1.1426129
  -0.2490415  -0.1107786   1.1593854  -0.1687471  -0.0799910   0.1530704
   0.0808788   0.6840867   0.5459050  -0.1851614   0.1650271   0.8878498
  -0.2549900  -0.1798381  -0.2042152  -1.8413944   0.8209872   0.5709294
  -2.4017434  -0.1250684  -0.2152365   0.2500950   0.1620104   0.0253531
   1.2406052  -1.2971052  -0.8406876  -0.5059956   0.6659019  -1.1388670
  -0.0009880  -0.0259519   0.0980225   0.9169069   0.3393064   0.2500222
   0.0780970  -0.0766436  -1.3688440  -0.4472705  -0.1251695   0.0818110
   0.1183165  -0.0275625   0.3553770   0.7736388  -1.0386882   0.7451741
   0.2151105  -0.0206136  -0.0058701   0.5237262   0.2670356   0.7063532
  -0.7273110  -0.1023526  -0.3579356  -0.1403096  -0.0905422  -0.3176181
  -0.8296062  -0.2857224  -1.7609965  -0.0048480  -0.3923288  -0.3526624
  -0.1865406   0.0086869   0.1469820  -0.6141991  -1.0416570   1.2303604
  -0.5979813  -0.4124629  -0.2764900   0.0612479  -0.0549916  -0.1268633
   0.1955945  -0.0993018  -0.9086989   0.3578510  -0.5081365   0.4209677
   0.5952970  -0.1618691   0.0957675   0.0671541  -0.1419936   0.8243484
   0.9845647   0.9917443   0.9141310   0.0908813   0.0166357   0.2406046
  -0.1992456  -0.8258846  -1.3902779   0.9640253   0.2506684  -0.1049198
   0.0860140   0.2908235   0.1581072   0.1646274   0.4474555   1.8269082
  -0.0947332  -0.0824012  -0.0978412  -0.0905701  -0.0893721   0.1326699
  -0.4866606   0.5950323   0.4325006   0.1980377   0.7111928  -0.2993775
   0.0782157  -0.0024922  -0.1120582   0.7915149  -0.3686624  -0.0171017
   0.4476109   0.0789936  -0.1327009  -0.0753461  -0.0972067  -0.1233209
  -0.1512107   0.3833811   0.0263401   1.4780219  -0.5373401   0.9062549
  -0.1817483  -0.1285202   0.0826480  -0.1577267   0.3399055  -0.8309779
  -0.2242000   0.3989612   0.4109471  -0.0892147  -0.0273245   0.2103970
   0.1664464  -0.4990786   1.1628609  -0.6996660   0.8063672  -0.4794908
   0.0871408  -0.0353858  -0.0708177  -1.0296947  -0.0596114   1.2643616
  -0.0648344  -0.1354616   0.4853141  -0.0862334  -0.0852943  -0.1213286
  -0.3824022   1.4536425   0.2506134   0.2442380   0.4944623  -0.7967161
   0.2994289  -0.1634179  -0.0675680   0.0601475  -0.1263107   1.1844344
   0.5869445  -0.4338197  -0.6001313   0.0312937   0.3033531   0.0001825
   1.1216108  -0.1637930   0.0078942   1.2879422  -0.5558741  -0.4394843
   0.1156251  -0.1540415  -0.0343226  -0.0959077  -0.2273024  -1.3517216
   0.4161453  -0.0355739   0.1683200   0.2351512  -0.0611691  -0.0529561
   0.6587349  -0.6829343  -0.3513514   0.8382479   1.1037229  -0.0128575
  -0.0041914   0.2000318  -0.0227237   0.9735199  -0.8295125   1.1228170
  -0.7138075   0.0808572  -0.0072429   0.0582127  -0.3129745   0.0407136
   0.3154881   0.4715714   0.4699517  -0.1014910   0.3574446  -0.2512069
  -0.0542430  -0.2050875   0.0494472   0.2223882   1.2878294   0.7649761
  -0.0309320   0.1081161   0.2700391  -0.1544979   0.0638858   0.3092675
  -0.4430760  -0.7442432  -0.6328031  -0.3369515  -0.4144195  -0.9305817
  -0.0562870  -0.1145705   0.0165791   1.0453397   0.5997815  -0.4468880
  -0.1467461   1.0299284   0.1156423   0.2448668   0.1177775   0.0220543
  -1.1342118   0.7275174  -0.0805672  -1.2449559  -0.2074238   0.3470687
   0.0186703   0.1880720  -0.1414658  -0.7263840   0.2778647   1.6880416
   0.2001690   0.7003012  -1.2370706  -0.1874956   0.1959431  -0.1152403
   0.7119362   0.2161885   0.1792686  -0.2850984  -0.3959320  -0.8752502
   0.3121948  -0.1247938   0.4129865   0.0715376  -0.1244095   0.4631614
  -2.1929002   1.4721611   1.4262800  -0.0669904  -0.0101191  -0.0195527
   0.4128098  -0.8649078  -1.0208657  -1.0805494  -0.7935138  -1.2940165
  -0.1866379   0.1817380   0.0893466  -0.8276276   2.3805034   1.0615749
  -0.3839284  -0.4775552  -0.4371456  -0.0996212  -0.0572147  -0.2526905
  -0.8601280   0.2347845  -0.6666667  -1.7228781   0.9949853   0.7175784
   0.0377373   0.1149065  -0.1831275   0.6030821   0.2930661   0.4596786
   0.5185617   1.6472200  -0.1906443   0.2086580  -0.0836833  -0.1884354
   0.7520024  -0.2482689  -0.3825020   0.5509193   0.8254634   0.9991802
   0.1819898   0.2394569  -0.2342823   0.0533183  -0.4431714   0.8647965
   1.0491797  -0.7002680   0.5870755   0.0860418   0.0789011   0.0189187
  -0.5559226   0.9962193   1.4693949   0.0530260  -0.1193356  -1.5387942
   0.0249822  -0.0423760  -0.0686853   0.7997770  -0.8425076   0.2189724
   0.4251944   0.5633821  -0.3018434  -0.1075077  -0.0849642  -0.0497900
  -0.3273520  -0.3385580  -0.9689817   2.2256896   0.2291714  -1.2892021
   0.1356809   0.0187170  -0.1236020  -0.3154827  -0.3378173   0.3000356
  -1.6124829  -0.4706519   1.4291611   0.1344534   0.0132207   0.4164152
  -1.0879425  -0.2297422   0.4110161   1.1855806   0.2144879   0.2866440
   0.0088149  -0.3825401  -0.3201903  -0.1247568   1.1889479  -1.2659533
   0.3402078   1.0581871   0.7020063  -0.3643777  -0.1686799  -0.1017660
   2.2345667   1.1054405  -1.4489521  -1.1302305   0.6863858  -1.1675599
   0.2100577   0.0161804  -0.1170093   0.0210052   0.3044178   0.3948407
  -0.8409736  -0.4440984  -0.0362917  -0.1156848   0.1669959  -0.2066887
   1.3187529   1.2086667   1.4189765  -1.5268005  -0.2066285   0.2140791
  -0.1171145  -0.0963670  -0.1819342   1.0211897   0.0257403   0.0052732
  -0.0448174   1.5297642   0.7367184   0.5754530   0.1032582  -0.0622502
   1.6082265   1.5441452  -0.5077506   0.4138842  -1.1808641   2.2125111
   0.2548172  -0.2644210   0.1714947  -0.0552854   0.3507364  -0.3798151
   0.1269107   0.0474589   0.6868183  -0.3388273  -0.1615518   0.2061771
   0.5751932   1.0904338  -0.7201852   1.2169734  -1.1066664  -0.5508593
   0.2340338   0.2565260  -0.1897289  -0.7230694  -0.1366129  -0.4106262
  -0.6955698  -0.1814691  -0.7929769  -0.2402061  -0.0600054   0.0370427
   0.8383496   0.8827173   0.2258379   0.6849328   1.1770209  -0.2001405
  -0.0971415   0.0856345  -0.2703636  -0.6648218  -2.2511017  -0.0719516
   0.6571225   0.2421191  -0.5309097   0.2158998  -0.1066059  -0.0781999
   0.0325067  -0.2880969  -1.2692058  -0.1769055   1.2166210   0.5313510
   0.1888667  -0.3300311  -0.0793274  -0.3823972   0.2950775   0.4801592
   0.7358581   0.3050395   0.3866946   0.4197822  -0.1312781   0.0836100
   0.7391744   1.9341890  -0.6235576   0.4719966   0.1826991  -0.2215003
  -0.0027310   0.1970124   0.1263137   0.8181469  -0.2324037   0.2650787
  -1.1974145  -1.1471782  -1.6222653   0.1651809   0.0084091   0.1125177
   0.8512899  -1.2134448   0.9060068  -0.1472055   0.8975392  -0.3393404
  -0.3447388  -0.2675227   0.1335857   0.0209643   0.4705385  -0.5455166
  -0.7762338  -0.8804884   0.0805868  -0.2112445  -0.0333744   0.1040619
   1.0033357   0.6469452   0.3005563  -0.2505362  -0.3235328   0.8534219
  -0.0348451  -0.0874318  -0.0220744  -0.9260057   0.1732114  -0.1289345
  -0.7312930   0.1072687   1.2199934   0.3758569  -0.2114668   0.1812602
   0.0594696  -0.4470984   0.1034701  -0.8123841  -0.5430619  -0.0128834
   0.1713685   0.0738231  -0.1245645  -0.8129188   0.2222867   0.8225673
   0.5174106   0.5114251   0.5034363  -0.1674914  -0.0940408   0.0072941
   0.6416091  -0.3683899  -0.0452412  -1.2928076  -0.4498502  -0.1969384
   0.1864505   0.1341970  -0.0450416  -1.1630775   0.3988139  -0.9428130
   0.0745166  -0.7805204   0.8833768   0.0571956   0.0587350   0.4160176
   0.2257817  -0.7701376   0.2855700  -0.1679458   0.3650621  -0.1517096
  -0.3057745  -0.0459748  -0.0490934   0.7716575   0.7570059  -1.2895477
  -0.4718750  -0.0327385  -0.6024556   0.1574939   0.1591336  -0.1268979
  -0.0637478   0.5746539   0.4378126   1.5396017   1.4254206   0.5925131
  -0.1993095   0.1384212   0.0959010   0.0653685   0.4043773  -0.6692591
  -0.1453084   0.2914129  -0.5639716  -0.1274225  -0.1663031   0.1263128
  -1.1344899   0.3212742  -0.6855908  -0.5333671  -0.5911017  -1.0404556
  -0.3475993  -0.1976506   0.0306107   0.7214919   0.0974534  -0.9700385
   0.9015298   0.1348342   0.2278719   0.0425941   0.0396056   0.5363815
   0.2126266   0.0501879  -0.6407154   0.2702442   0.8202658  -1.2590929
   0.1268436   0.0284645   0.1265269  -1.3499051  -0.0044066   0.7799437
   1.2171086   0.5248311   1.1688474  -0.1464901  -0.1744170  -0.1911356
   0.7592233  -0.5111071  -0.5478215  -0.4065817   0.0435234  -0.5179070
   0.3070587   0.2121856  -0.0619175   0.1049189   0.3462717   0.9571138
   0.3340036   0.5679716   0.4789447  -0.1807869   0.0593998  -0.1149142
  -0.9965011  -1.0357164  -0.6985625  -0.3401026   1.0263880  -0.9816569
   0.0525228  -0.1094392   0.1519932   0.4161176  -0.3434253  -0.2088702
  -0.7188671   0.7036062   1.3901303   0.0452365  -0.1650725   0.1616884
   0.7767035   0.7265913  -0.9329789  -0.1720529   0.4387364   0.8514525
  -0.1578147   0.0911772  -0.2200020   2.1922915  -1.6453282   1.4777014
   0.1565806   0.7264977  -0.6246666  -0.3600300  -0.1403623   0.3733069
  -0.2668027   0.0534553   0.5161379   0.9111590  -0.4269737  -0.2570308
   0.0463709  -0.1940993   0.1072063   1.9057258  -0.4903244  -0.4080345
  -0.3003772   0.8723670  -0.9355783   0.0549954  -0.0840814   0.0221934
   0.7523103   1.0717231  -0.6743324  -0.7393886  -0.2295691   0.3136113
   0.0172965  -0.1052386   0.0609986   0.1017062  -0.1022727   0.6815753
   0.5119129   0.6398512  -0.9044594   0.0244923   0.1378242  -0.2467927
   0.0402009   1.0269343  -0.2472216   0.4799519  -0.3859390   1.0348413
  -0.2878252  -0.0397845  -0.2093433  -1.2582917  -0.1876232  -0.5088285
   0.4780663   1.0069588   1.2469519   0.0702532   0.0196809   0.0794837
  -0.1024576   0.0240387   0.4164374  -1.0811738   0.2403404  -0.8083537
   0.0071003  -0.1258186   0.0404638   0.7151709   0.2944069   0.3228054
   0.8121452   0.0325629  -0.0003982   0.0677479   0.1820707   0.1404023
  -1.1172198   0.2383372   0.2575031   0.0655762   0.4241970   0.0994995
  -0.0299252  -0.0622049   0.2905259   1.2520380  -1.2727761   0.7766935
  -0.4627265   0.0053386   0.8754902   0.1343241   0.0525905   0.0601053
   0.6347212   0.8550911  -0.0847171   0.0301448  -0.4969059  -0.3923493
   0.2408956  -0.0855768   0.1711503   0.0401529  -0.2097290  -0.6743389
   0.4811963  -0.2043618   0.0152056  -0.0222233  -0.1714218  -0.0126265
   0.7006608  -0.2270553   0.7791681   0.4913841   0.4914448  -2.1504300
   0.0049580   0.1192558   0.1222520   1.0340469   1.0267681  -0.3833893
   0.7504852   0.1522975   0.8163524   0.1721296   0.0240716  -0.0922126
   1.2257159   0.4234545  -0.6561962   0.6812425   0.0638037   0.7055481
   0.0377886  -0.2589428  -0.1121669  -0.1452807   0.4420228   0.1540861
   0.1099880  -0.0272278  -0.5805866  -0.0422437  -0.4180818   0.0807011
   1.2913485  -0.6942314  -0.2237404   0.4551313   1.1930377  -0.3431448
  -0.1209739   0.1781262   0.0389286  -0.5775464   0.2353072   1.0970747
  -1.7801281   0.9030472   0.5317013  -0.0127055  -0.4515768  -0.0623029
  -1.2127455  -0.5333033   0.7290620  -0.6950480   0.1730360   0.2274899
  -0.4630848   0.1998920   0.0694594  -0.3543971  -0.4114665  -1.5267867
  -0.8350133  -0.1471702  -0.1763434   0.0508152   0.3500754   0.2602845
   0.4680786   0.2992260  -0.3857954  -0.1982188  -0.0404479   0.6067009
   0.2758945  -0.1244902  -0.0290264   0.7106128  -1.4470787   0.3252299
   0.1903430  -0.5503958   1.0348538  -0.0478073  -0.3462839  -0.2786213
   0.1378005  -0.6343285  -1.7070290   0.1869237   0.6298380   0.2190523
  -0.2690753   0.0792070   0.0555992   0.4729007   0.3296532  -0.0602536
   0.1528088  -0.1691744  -0.5589715   0.2002480   0.1307673  -0.2584944
  -0.7810040   0.9930282  -0.3730512  -0.1912733   0.5749292  -0.0029114
   0.0651396   0.0143803  -0.0700351  -0.3020287  -0.1224546  -0.8102620
   0.4645297   1.0608642   1.0626801  -0.3388648   0.0797067  -0.1479719
  -0.3395622  -0.0283145   1.2553617   0.3671053   0.5138493   1.4651247
   0.0665702  -0.4157312  -0.0534025   0.2693870  -0.1058964  -0.5785765
  -0.2950937   0.5935758   1.6692867   0.0479934  -0.2089859  -0.0585403
   0.9540812   1.6580774   0.3102092  -0.1719290  -1.8107278   1.1263683
   0.3109199   0.2052879   0.1936066   0.3102022   1.3782371  -0.0348051
   0.7038899   0.4942978   0.7032700   0.5437562   0.1469277   0.0704871
  -0.5418810  -0.1415839  -1.0819844   1.3828428   0.3241085  -0.8268296
   0.0101910  -0.2855521  -0.3233710   0.5571898   1.3252083  -0.4089649
   0.5011531   0.5838197  -0.5850508  -0.3444974   0.1765693  -0.1533159
   0.3632541  -0.6083049  -0.9345055  -0.8436317  -0.2269239  -0.4186493
   0.0052247  -0.1603312  -0.1279172  -0.1042255   1.3045330  -0.9121997
   0.9111909   1.5937831  -0.3254520  -0.0435040   0.3644496   0.0072796
   0.0229467   0.6711800  -0.3356655  -0.0617522   1.1946172  -1.9696310
   0.1207726  -0.0346906  -0.0569209  -0.1995326   0.5207406   0.8746490
  -0.1255620   0.0767467  -0.1934853   0.1987989   0.0797697   0.1214999
   0.3692726  -1.3536700  -1.1886679   1.3616896  -0.0645294   0.3925802
  -0.0092597   0.2587685  -0.0297396   0.2380214   0.0548581   1.4630758
  -0.2146878  -0.7298452  -0.8292536  -0.1847302   0.1346358  -0.0131075
  -0.2518129   0.9614716   0.3541978  -0.1126423   0.8991996  -0.9653831
   0.2037985  -0.0522143  -0.4755402  -0.8642430  -0.4740511   1.3341602
  -0.2594615  -1.4131534   0.5479013  -0.0054151  -0.0009622   0.1211745
  -0.2627423   0.4379898   0.4173717   0.5973741  -0.0329740  -0.0632207
  -0.0030561   0.0408431   0.0466837   0.6680606   0.8220642  -0.4947761
  -0.2037813  -0.0046487   0.1921817   0.2850746   0.1068474   0.1690069
   0.5321836   0.7666252   0.2435522   1.6116790   0.0887822  -0.2496369
   0.2111309   0.0135659  -0.2182343  -0.8375119   0.0668944  -0.0227003
   0.4277982   0.4117517   2.4530063  -0.0856523  -0.1515321  -0.0204459
   0.1098762   1.9982617   0.0910007  -0.9078870   0.0178963   0.2316842
  -0.1011260   0.0487501   0.2405747   0.9785486  -0.4945738  -0.8288680
  -0.2304042  -1.2385683  -0.3338389   0.3698355   0.0170141  -0.0657812
  -0.1797757  -0.5768943   0.7071273   0.5553358   0.6182777   0.5143055
   0.3554806   0.0455608   0.1227856  -0.8004303   1.5400426   0.1765269
  -0.3270473  -0.8462433  -0.0353208  -0.1872999  -0.1887513   0.1576807
   0.1268114   0.1643686   0.0881040  -1.3827806   0.4495073   0.0172820
   0.3229548   0.2049974   0.0880071  -1.3495331   0.4527317   1.2422681
  -0.4927090  -1.2320648  -0.4467911   0.1790885  -0.1037856  -0.2680589
   0.0425791  -1.0720507   0.0656474   1.0012821  -0.0885002  -0.7469879
   0.0883737   0.0180115  -0.4031960   0.1830518  -0.2899449   0.7795599
  -0.4790695   0.4689020  -0.0475570  -0.2711535   0.3941251   0.3409828
   0.9557436  -0.3536609  -1.1613058  -0.7970227   0.6509750   0.1971299
   0.2967590  -0.0578850  -0.0605004   1.2321597  -0.6268712   0.4292856
  -0.4516074   0.0798129   0.6086205  -0.2191360   0.0628038   0.0385824
   0.1571145   0.2173551  -0.0715033  -0.6407148  -0.6730404  -0.7253470
  -0.2649477   0.4072365   0.2165928  -0.3584899   1.1691066   0.2458269
   0.9236270  -1.5347085  -0.5803939  -0.4602816   0.0607775   0.1204675
   0.1176351  -0.1461605  -0.6199218   0.2809912   0.2897404  -0.5892327
   0.0013633   0.0789660  -0.2838935  -0.4254225   0.4946936  -0.8331044
   0.9040680   0.8291944  -0.0265434   0.1635761   0.3155096  -0.2763165
  -0.0434288  -0.8907604  -0.1762564   0.8751854   1.5019182  -0.0890954
   0.0053434   0.0448482  -0.2008540   0.2093423  -1.1786516  -0.8297418
  -0.3490198  -0.7532083   0.7885726  -0.0513702   0.1240622   0.0547120
  -0.9160432  -0.3189541  -1.2763642   0.1423353  -0.0313327   0.2454188
   0.2113323  -0.3293919   0.2213861   1.5258960  -0.5014012  -0.4700429
  -0.3316584   0.5295189  -0.7597808  -0.2638507  -0.3326127  -0.1384361
  -0.5732130  -0.1542153  -1.4772463   0.7864601   0.9279554  -0.0238468
   0.2790466  -0.2617728   0.0594386   0.0414176   0.7279741  -0.7572289
  -0.0832132  -0.4015938   0.3167111   0.0707674  -0.0152715   0.0154497
   0.7322128  -0.9019985  -1.5843358   0.1780337  -0.0832432   0.0139924
   0.0252028  -0.0425722   0.1652907  -0.7829597   1.0271642  -0.2047691
  -0.8672227   0.5024490   0.1116010   0.2067366  -0.0591651   0.0000126
   0.1608617   0.2163711   1.0027208   0.4517583   0.2666441  -0.1484380
  -0.1418095   0.4821625  -0.1798991  -0.5008819  -0.9244427   0.1482183
   0.3974018   0.0172053   0.1864576   0.1786917  -0.1854324   0.0144473
  -0.3861853   0.6216207  -0.2829795  -0.1135041   0.2580661  -0.0611394
  -0.1819079  -0.1527600   0.1018713  -0.1968083   1.0596547   0.5845469
  -1.2318026   1.4152530   1.1576329  -0.0639685   0.0365555   0.4107093
   0.4652548  -0.4658827   0.4339976   0.1471499   0.0486383  -0.2298142
  -0.2045937  -0.1070827   0.1782155   1.2182134   0.3426740  -0.6426564
  -0.6603676   0.0695007   0.4100363  -0.1313138  -0.2691803  -0.1520301
   0.4515584  -2.0901685   0.9220003  -1.0867543   0.7107490  -0.0289767
  -0.1892100   0.1539698   0.0825261   1.2848411  -0.5492143   0.1551089
   0.3368304   0.0467419   0.8247012  -0.0017766  -0.2744871  -0.1261488
  -0.7999650  -0.3785743   0.1812484  -0.5116017  -0.7938462   0.2714552
  -0.1527114  -0.0384545   0.1224319  -0.1207595  -0.2891006   1.2303724
  -0.0952157  -0.7868486   0.6984946  -0.2969610  -0.3492567  -0.1598551
   0.5673217   0.4455973  -0.4835984  -0.4382595  -0.7436095   0.5687079
   0.2279128   0.4177458  -0.0422598   0.0247438   0.2722285  -0.1780333
  -0.0919522  -0.2244182  -0.2329234  -0.0358391   0.2254466  -0.0531579
   0.1978287   0.2746427  -0.6935633  -0.3855297   0.4615098  -0.5772371
   0.1849018  -0.1779010  -0.1033215  -0.1596414  -0.8378893  -0.8854009
   1.5457529  -0.4642316   1.4523325  -0.2128042  -0.2339201  -0.0484918
  -0.6193994   0.7464539  -0.5443133  -0.7892272  -0.6978330   0.1931025
  -0.1579078  -0.2187071  -0.2655197   1.0717564   0.8065216  -0.0764512
  -0.6769699   0.2841084   0.0100153  -0.1082499  -0.1225258  -0.0307321
   0.4394352   0.1623790  -0.1153755  -0.8808069   1.8808087  -0.2320009
   0.2216161  -0.2796073  -0.2291471  -0.1479118   0.8749098   1.0107975
  -0.5134750   0.0785154   1.8623151  -0.3147449  -0.1388705   0.0243456
  -1.2336782  -0.5002998   0.5156412   0.1283987  -0.6176561  -1.5970055
   0.3644778  -0.1367303  -0.0198287   0.5627722   0.9565083   0.6522670
  -0.8971135  -0.1929783   1.2182119  -0.3403102  -0.1124218  -0.0722910
  -0.2765401   0.8410735  -0.1051311  -0.1674823  -0.4919320   0.0317106
   0.1138260  -0.2208805  -0.0475635  -0.5886751  -1.1701771   0.1483869
   0.4587077  -0.2166446   1.1466376   0.0439994   0.0527403   0.0486035
   0.0750328   0.7073861  -0.7111273  -0.7764573   0.2113755   1.1411572
   0.1440239  -0.0003463  -0.1507748   0.4268143  -1.6751715  -0.5037399
   0.1328778   0.0407791   1.0057157   0.2778209  -0.0033507  -0.0935826
   0.4915251  -0.9879049  -0.9402044  -0.0806732   1.2559931  -0.5363921
  -0.2182667  -0.1759638   0.2417208   0.1047985  -0.2772980   1.3047127
  -1.4887506   0.4951735   0.2649065  -0.1245453   0.1158484   0.2943527
  -1.1725391  -0.7547327   0.5149028  -1.1194656  -0.8126186   2.2578120
   0.2735018  -0.1250949   0.0891305  -0.3384551   1.1810730  -1.8446847
  -1.0027319   0.0068489  -0.9479591   0.1231684  -0.1478793   0.4534549
  -0.4716564   0.2988802   0.6066622   0.6408650   1.1717409  -1.7307390
   0.0976246   0.0670455  -0.2308468   0.5842565  -0.2980003   0.3453008
   0.4095082  -1.5500174   0.4734598   0.0625604   0.1866359  -0.3131236
   0.9289914  -0.4317729   0.6458195   0.1649687   0.1904076   0.5897211
  -0.0180842  -0.3103137   0.3342948  -1.1265521  -0.3406743   0.4900897
  -0.5342346  -0.3799994  -1.6071707  -0.0153762   0.3341289  -0.0463993
  -0.6133525  -0.6753200  -1.0446289   0.9239498   0.2685373  -0.8776014
  -0.2270452   0.0038524  -0.1712147  -0.0280378  -1.0072129   0.4188775
  -0.5502691  -0.6287972  -0.4460466   0.1494405   0.1135912   0.2312323
   1.2402844   0.8969901  -1.1495968  -0.0296052  -0.4145941  -0.0253533
   0.0355109  -0.0742837  -0.0371645   1.8015779  -0.2381210   0.9057621
  -0.2644255  -0.5184094   0.7305580   0.5349703  -0.1649444  -0.2303553
  -0.8684736   0.9451082  -0.6304507  -0.2941794   1.0238416   0.3115619
  -0.4599546  -0.2624776  -0.2871159  -0.7854812   0.3490025  -0.3900558
  -0.3601043  -0.1288264   0.6297117   0.1745004   0.1547695   0.1106588
  -0.4560250   0.1525195  -0.0056077   1.0939661   0.2727445  -0.2044111
   0.1236572   0.3745182   0.1652083  -0.1692501  -0.5001769  -0.5503390
  -0.5748920  -1.4647540  -0.5010303   0.0529145   0.0554682   0.2045344
   0.5425797   0.1597739   0.8809364   0.2483738  -0.3943231  -0.2518425
   0.0221971  -0.3125231   0.1280703   0.5389845  -1.3905132   0.1504633
   0.0918166   1.0079805   0.5123900  -0.0050002  -0.0200608   0.0988038
  -0.0918891   0.5133593   0.8066045   1.4798831  -0.1423197   1.5588944
   0.1799777   0.1686505   0.5033797   2.0584481   1.3793588   1.0235794
  -0.7681993  -0.6799606  -0.5870906   0.1620189  -0.1953220   0.2548918
  -0.5241899   2.2284563   1.7374341   0.6431691   0.7724953  -0.8241680
   0.0424947  -0.2926460  -0.0636823  -0.4607241   0.8530483  -0.8020261
  -0.6279377  -0.0458333   0.4457181   0.0760264  -0.1727385  -0.0508410
   0.7984920   1.2732375  -0.4279916  -1.0602068  -0.9917548   0.2540848
   0.0630101   0.1953951  -0.0274546   1.9952557   0.2597173   0.6955087
  -0.7378731   1.4320989   0.1814727   0.2468104   0.1517660  -0.0023022
   0.4814588   0.7904159  -0.2944907  -0.9638605   0.4491620  -0.0120799
   0.5872608  -0.2091640   0.0002642  -0.6501341  -1.0884572   0.3423405
  -1.6961813   0.6866590  -0.2706899  -0.3626843  -0.2598945   0.0778413
  -1.4303778  -0.3494550  -0.5538070   1.5539491   0.2054636   0.1813709
  -0.2930262   0.4484375   0.0029913   0.3401614  -0.1575858  -0.2687169
   0.9238189   0.2643197   0.8012021  -0.0534838  -0.0402081  -0.1300237
  -0.2461674   0.0141617   1.2744896   0.7874770  -1.5208695  -0.5430067
   0.3118577  -0.0784600  -0.1226851  -0.5254751  -0.9377539  -0.3320610
  -0.7262356  -1.1465039   1.7511215  -0.3533815   0.0205267   0.1417477
   1.5790094   0.6507658  -0.4555961  -1.7475064  -0.8205230   1.1498213
  -0.1493258   0.1577411   0.0838610  -0.1535426   0.4231017  -0.0973860
  -0.4783974   1.3674554   0.0038153  -0.2384992  -0.3316326  -0.2292687
   0.7808836   0.5626299   0.5110473   0.0216165   0.5272712  -1.0999986
  -0.0735860   0.1250481  -0.1107455  -0.1218186   0.0256148  -0.1018034
   0.4372746   0.0736229   0.8784963   0.0001894   0.0442521  -0.1055560
   0.3226241  -1.0840545   0.6229953  -0.2931673   0.0687238   0.1314334
  -0.0319767   0.1294396  -0.3815310   0.1160241  -0.3891410   0.1024864
  -0.8776944  -0.7566365   0.5076240   0.1157785   0.3406664   0.2851868
   1.8068175  -0.0245004  -0.2304307  -1.9618502   1.1091098   0.3990552
  -0.1277712   0.2252969   0.1472854   1.7284616  -0.3287389   0.3219757
  -0.5596809   0.0090679  -1.0618135   0.3411714   0.0612928   0.2928932
   0.1937170  -0.4098592  -0.3936388   0.3031980   0.7643024  -0.6549075
   0.0584206  -0.3352830   0.1621384  -0.8125237  -0.0351668   1.8487391
  -1.4092113   0.5596927  -0.8961518   0.4481860  -0.2759484   0.3182831
   0.0083027  -0.1113233   0.4472606   0.6888413   0.2557194  -0.3453788
   0.2395546   0.2163312  -0.0283046  -0.1097399   1.0347321   0.8299748
  -0.2122439  -0.1932781  -0.2709365  -0.1979623   0.0779805   0.2524268
   0.3845644   0.0205872  -0.8474700  -0.3292838   0.5124400  -0.3229854
  -0.1163238   0.1390909   0.1411247   2.0575731   1.2396737  -0.4109432
   0.1409017   0.2547770   0.3038798  -0.0660973  -0.0336007  -0.1320104
  -1.4632773  -0.1988821  -1.1927549   0.2589222  -1.2499779   0.6525858
  -0.3804218   0.0095917  -0.3510571  -0.8470039   0.1837158   0.2582939
  -1.6398375   0.2401040   0.7858801   0.1080731  -0.1091233  -0.1851535
  -1.1108820   1.0328357  -0.6610279   0.3612689   0.0474626  -0.3164826
  -0.0223323  -0.2348602   0.1121124   0.8172290   0.4659507   0.9962972
  -0.5471243   0.4346121  -1.5335419  -0.1338538  -0.0834211   0.0293088
  -0.6321766  -0.5193377  -0.2593457   0.0745490  -0.4519075   1.8183151
   0.2889544   0.0157307   0.1726875  -1.1045181   0.0977053   1.3210975
  -0.6684524   0.3892692   0.1212949   0.3440937  -0.0076166   0.2733113
  -0.7825436  -0.0214387   0.6168867   0.9277670  -0.0707690  -0.3291247
  -0.0524682   0.3056786  -0.1694525  -0.4421093   0.9196714   0.9072008
  -0.2074795  -0.3073311   0.9722593  -0.0284043   0.1601345  -0.0652516
   0.2850901  -0.5421254  -0.2451457  -0.4661871  -0.6720058  -0.9045401
  -0.0445260   0.0796009   0.0291124  -1.3982102  -0.8441056   0.3609475
  -0.5702450  -0.4188607   0.4584622   0.2656693   0.1396831  -0.0601979
   0.1143824   1.2508962  -1.2697989   0.9638463   0.2885619  -0.3028550
   0.1274912  -0.2229480   0.1324173  -1.4642055   0.3870562   0.8076588
  -1.6345121   0.4040096  -0.9661170  -0.0785722  -0.0142213  -0.3004380
  -0.2502259  -0.0837626   0.6416476  -0.3412241  -0.5524150  -0.1934192
   0.1357556  -0.0545419   0.0319519   0.3321349  -1.2716383   0.2645350
   1.0440983  -0.3227362   0.7004917   0.0380137  -0.4719936   0.1163131
   0.2941201   0.4449606  -0.4986776  -0.6127846  -0.1598943  -0.1779353
   0.2226428  -0.2691828   0.1923877  -0.5538645   1.1871655  -0.3410489
  -1.1845114   0.9698842   1.2153968   0.0269674   0.0207183   0.1905211
   0.2593223   1.6447123   0.1406743   0.0439252  -0.8456712  -0.0262846
   0.0567909  -0.2108279   0.2697217  -0.1831204   0.5527825   0.2816932
  -0.5625362  -0.8990551  -0.1832161  -0.0353592  -0.1137300  -0.1512405
   0.5158158   0.9436678  -0.0162129  -1.1502025  -0.7558252   1.1578498
   0.1677264  -0.0140094   0.1980251  -0.1720187  -1.5340470   0.1648617
  -1.2627137  -0.5214846   0.8041233  -0.2459511  -0.2490163   0.1862213
   0.6811064  -0.8548662   0.6456681   0.5277219  -0.3817480  -0.6089261
  -0.0323528   0.2460502   0.2284798  -0.5079550   0.5395979   1.3816907
   0.6212475  -0.2307113  -0.7037858   0.1869079   0.0131212   0.3404626
   0.3497519  -1.3686452  -0.3873056  -0.4016462  -1.1321391   1.6702347
  -0.1570021   0.2545614  -0.1013624   0.4973406  -0.6953486   1.1715184
  -0.3578924   1.1833870  -0.9538055  -0.0762498   0.0708760  -0.3872620
   1.2185017  -1.0520918   0.4997066  -0.2860281  -0.6812348  -0.7264498
  -0.2175890   0.2261464  -0.1378536  -0.6137246   0.8677961   1.7440169
  -0.5484408  -0.2937347   0.5147431   0.0244236  -0.3477829   0.1741562
   0.0496666   0.1838145   0.4388019  -0.4345127  -0.0709988   0.0985289
   0.1760094  -0.3454787   0.0645865  -0.2501486   0.1131184  -0.8383877
  -0.1359784  -0.5320609  -0.4523336   0.3326474  -0.0479365  -0.1990740
   1.0723803  -1.2846754  -1.0510366   0.1358563   0.8002526  -0.1445104
   0.0285194  -0.1135076   0.0233884  -1.4057984  -0.3339635  -0.0091209
  -1.8867916   1.3367306   0.4333111  -0.0536152   0.2162046   0.1744498
  -0.3330964   0.6738242  -0.6622124  -0.5062102  -1.6586949  -0.8346940
   0.2444811  -0.3461458  -0.0488601  -0.6315246   0.6371197  -0.3045332
  -0.0266684  -0.3730099   0.0343886  -0.2240364   0.1548244   0.1634410
   0.5933083  -0.2301401   1.7317674  -0.3354559   0.2479587  -1.3024594
   0.5522813  -0.1197952   0.0344355  -0.1827573   0.6747737  -0.0525116
  -0.7604311   0.0692624  -0.1297636  -0.0261952  -0.0594398  -0.0015927
   0.6231242   0.6915377  -0.9722081  -0.7894382  -0.3404764  -0.3685958
   0.1988226  -0.0278008  -0.0649980  -0.1710253   0.0962344  -0.1423446
  -0.3797249  -0.7493300   0.1347590  -0.0013570  -0.1515635  -0.0628264
   0.5958040   1.2316123   1.2121150  -1.1566987   0.8526884   0.4900771
   0.0598694  -0.1846488   0.0284950  -0.9263234  -0.2033190   0.6058505
  -2.0521171   0.8521641   0.4618132  -0.0178396   0.1088911  -0.1367075
   0.4251082  -0.5936759  -0.0830745   0.7278544   0.8979135   1.1753293
  -0.1024727   0.0445472  -0.4336835   0.0229278   0.1388009   0.3110603
   0.9494243  -0.2763919  -0.0926707  -0.1401997   0.0861271  -0.1874620
   0.3622296   0.9559138   0.5933121  -1.1348369   0.7131127   0.3455336
  -0.0671921  -0.0360170   0.0237346  -0.8523124  -0.5065639  -0.3810345
  -0.2147748  -1.0915813   0.3954334  -0.1005786  -0.1462301  -0.1127510
  -1.4525291   0.9669718   0.7592596  -0.4070855   0.1136294   1.0034380
  -0.0242410   0.0353593   0.2710175  -0.3792822  -0.0434865  -1.1898023
   0.9594252   1.5897048   0.1477125  -0.0194451  -0.1480432   0.1470592
   0.2531131   1.0054978  -0.7073243  -1.5544761  -0.9714258   0.4358320
   0.1180584  -0.1708300  -0.0085551  -0.1081362  -0.3358543   0.6065484
  -0.2005778  -0.1659525   0.9163465   0.0401175   0.1052151   0.2197202
   0.2473562   0.1110610  -1.6164500  -0.1645106  -0.7580124  -1.3757198
  -0.1308011   0.1664729   0.2810346   0.1465434   1.1765782   0.8070425
  -0.9688123  -1.6599269  -0.6095737  -0.1659461   0.1206926  -0.0264977
  -0.0450702   0.2110973   0.8861163   0.9115630  -1.0063188   1.7346467
   0.0343735  -0.1399085  -0.0580589  -1.3680333   0.9684951  -0.6776975
   0.1287027  -0.9071290   2.1048031  -0.1100529   0.1499436  -0.1906601
   0.1745625  -0.4916900   0.7921967   1.1200832   0.1691576   0.1573432
   0.1291153  -0.1011134  -0.2855387   0.0977166  -1.7644554  -0.5206645
  -0.3950603  -1.0164845  -0.4067212   0.3631889  -0.0766287  -0.2150299
  -0.9056068  -0.7478737   0.9955069  -0.7369782   0.3725098  -0.8047915
   0.4459084  -0.2321856  -0.0651514   0.2041091  -1.4360682   0.5451919
  -1.4596100   0.2826585  -0.0913281  -0.2394934   0.3449133   0.0947824
  -0.0042696   1.2211680   1.7727894  -1.1175357   0.8088219   0.0018358
  -0.2365702  -0.2996797   0.1480801   0.6716309   0.3833507  -0.7523122
  -0.8201169   0.6226109  -1.7912141  -0.2617359  -0.1863298   0.1660953
  -1.0420281  -0.1443042   1.3116573  -0.3029564  -0.2306800   0.2151282
  -0.0734497  -0.1365102  -0.1124098   1.3697680  -0.2603028   0.5022093
   0.0230262   0.5033551  -0.2715059   0.2190454   0.0948022   0.1933699
  -0.3134595   0.1654013   0.9785106   0.5102547   0.5549203   0.9757882
  -0.0966000   0.2312364   0.1517092   0.2621377   0.6795766  -0.9148065
  -0.1774250   0.7006783  -0.1320513   0.1937740  -0.2255713  -0.0796713
  -0.2431245  -0.0265783   0.3735411  -0.8813888   0.5450171  -2.0149345
  -0.4042843  -0.3564429   0.2711097  -0.9637758   1.1292639   0.3896069
  -0.5758559  -1.4875566   0.4182721  -0.4340625  -0.3041135  -0.0526249
  -0.7479029  -0.5403419   0.1685437   1.8981469   0.3475977  -0.9076669
   0.0451138  -0.1798413   0.5323028   0.4610589   1.1746932  -0.5285702
  -0.7648282  -0.0963559   0.4832074  -0.0689161  -0.1011043  -0.1355218
  -1.5241755   0.3321687   0.6807836   1.3843442   0.2225586   0.2404459
  -0.1734284  -0.1798226  -0.5837666  -0.8786212   0.8336563  -0.2925821
  -0.5074276   0.5536053   0.9040548  -0.1210900  -0.2480641   0.3595200
  -0.4509816   0.4278499   0.4169209   0.6004705  -0.1327994  -0.5543129
   0.3746564   0.0356090   0.0302627  -0.0479507  -0.5256239  -0.3957733
   0.8250262  -0.7485921   1.2939525  -0.0639258  -0.0818190  -0.0676931
   0.6657955  -0.4191810  -2.2733860  -0.2183604   1.1534162   0.1391495
   0.0953886  -0.4097241   0.2739316   0.5004107  -0.4070424  -0.5300754
   0.6484011  -0.4782614   0.9368299   0.2221810  -0.1186905  -0.2299677
   0.3223920   0.9331172   0.7457501   0.3509243  -0.1735533   0.2065150
  -0.0466367   0.1461855  -0.0677658  -1.3239347   0.4987950  -1.1945411
  -0.0073743   0.0843631   0.0752211   0.0697676  -0.2321176   0.1851085
   0.4322310   1.4049731   0.0920147   0.0348521   1.0797899   0.6181881
  -0.0691484  -0.0103917   0.0124034   0.1855680   1.7617161   0.8417878
  -0.7605179  -1.0963160   0.5877641  -0.0004460  -0.0289201  -0.0932959
  -0.4838228  -0.0437893   1.3241438  -0.6263480  -0.2414543  -0.3263169
   0.0670010  -0.0435964  -0.1501627  -0.0109492   0.7882260  -1.1229187
  -0.1091810   0.3855222  -1.0512221   0.1878049  -0.0165104  -0.0797085
  -0.7064092   0.1070772  -0.8221414  -0.1345808   1.4963846  -0.9921764
   0.0323164  -0.1265821  -0.1515004  -0.1990073   0.8213265   0.4574020
   0.7895684   0.4530844  -0.1192728  -0.1587175  -0.0799919   0.1981720
   0.6170907   0.1721084  -0.9134558  -0.2688277  -2.0974576   0.8249205
  -0.2401610  -0.0680081   0.0682943  -0.7857596  -0.3054462   1.2008338
  -1.3320732   0.7204761  -0.5864890   0.3142160   0.1557738  -0.2945440
  -0.5826979   1.5829507  -0.0724798   1.2012675   1.1431295  -0.7603995
   0.0671156  -0.2127564  -0.0234193  -0.1851359  -0.5774705  -0.7339346
  -0.8617641  -0.3575301   0.2430575  -0.1420816   0.3497413  -0.1003066
   0.0659106  -0.9672255  -0.6699550   0.3259151  -0.4500424  -0.0454252
   0.0956879  -0.1629903  -0.0884021  -1.4969457   0.4395367   0.9861809
   0.6570269  -0.2574250  -1.3149313  -0.0434778  -0.1655160  -0.1021168
   0.6954723  -0.2515525   0.4090332  -0.1453796  -0.0497796  -1.2776808
  -0.3217866   0.0019569  -0.0511006   0.1761185  -0.4010680   0.3347554
  -1.0287284   0.8357385   0.3084423   0.0270780   0.0181641  -0.0190507
  -0.7052281  -0.5026743   0.0641750  -0.5591845  -0.4096749  -1.3409008
  -0.0136085  -0.0539223   0.1222307   0.6047667   0.2833565   0.2690223
  -2.2977924   0.1024189  -0.0679060  -0.1481147   0.2240745   0.3196077
  -0.1755847  -0.2983937  -1.1915156  -0.9027838  -0.5070022  -0.1880695
  -0.4261850   0.0378363  -0.0339248  -0.9490783  -0.2149230  -0.6046023
  -0.3628202  -0.1732988   0.7420349   0.1397036  -0.2496231   0.0980263
   0.3731146   0.2077591   0.3310054   0.0315688  -0.4679513   0.6103441
   0.0051952  -0.0732722  -0.0151625  -0.4340766   1.2256641  -1.1497461
   0.3168653   1.6596676   0.3078501  -0.0168210  -0.1322068   0.2399437
  -0.8187883   0.4343933   0.5290023   1.2692305   0.4856612  -1.0148808
   0.0261074  -0.2014560  -0.1841445   0.1900029   0.3903044  -1.2134188
   0.7025805  -0.4873842   0.7848919  -0.1923646   0.3055676   0.2640508
  -0.7480273  -0.7191827  -0.3868597   0.7321439  -0.6441825  -0.0577536
   0.2927938  -0.4383648  -0.0849864   0.3361987   0.3129592   0.3929371
  -0.9118187  -0.0637158   0.5554340  -0.1568325   0.0109864   0.1441487
   0.8811584  -1.1269833  -2.1145937   0.3345909   0.0955604   0.7368087
   0.1272701  -0.1767294   0.0971803   1.2632469  -1.1003580  -0.0565217
   0.7327444  -0.8574144  -0.2351658   0.1606265  -0.0660228   0.1611692
  -0.0560015  -1.9877993  -1.1872568   1.2824228  -0.9568313   1.4757745
   0.2533835  -0.0408200  -0.2804477   0.5433328  -0.3800030  -1.2901183
  -0.3970009   0.5261630   1.0330964   0.1264707   0.3267041  -0.1083026
   0.1335847  -0.7427492  -0.5147854   0.3547905  -1.9551033   1.7798997
   0.2213500  -0.0287241  -0.2225470   0.3075895  -0.4700013  -0.1494625
  -0.2302399   0.3947152   0.3709314   0.1694127   0.1823146  -0.0430296
  -0.4518007   1.9651481   0.6796418   0.9190940   2.1236098   1.0083368
  -0.3476494   0.1589553   0.0571651  -0.2367911   0.0126363  -0.9952237
   1.2345141  -0.1767058   0.1718731  -0.1387690  -0.3034697   0.2739486
  -0.4739144   1.2969353  -0.3010392  -1.0157574   0.0792160  -1.3087137
   0.0216219   0.2251690   0.1239490   0.7265347   1.4580414  -0.2884401
   1.0902573   0.4242474  -0.9284675  -0.0530455   0.0474833   0.1543092
  -0.8545467   1.2750009  -1.1441267  -0.8303102  -1.1437581   0.4426428
  -0.2022680   0.2609620  -0.0808450   0.1191499   1.0808029  -0.3485090
  -0.8401361  -1.1975394   0.8160781  -0.1784527   0.1292482  -0.1673607
  -1.3369075   0.4607171   0.1696933   0.3010501   1.8564361  -0.6840335
   0.1705722   0.0966019  -0.0632499   0.4257676   0.0073069   0.5316507
  -1.0048528   0.1890723  -0.5760756   0.1220108  -0.0354619  -0.1022168
   0.7908560  -0.1738206  -1.2567270  -1.1076337   0.5551692   1.2456124
  -0.0864088   0.0152303   0.1838447  -0.0083983   0.4071069  -0.1135926
   0.1103210  -0.3774592   1.6939001   0.1928165   0.1388871  -0.1777706
  -0.7271997  -0.0758984   0.4836445   0.6157754  -0.7992400  -0.1581609
  -0.0162780  -0.0714482   0.1413643  -0.5502021   1.2993146   0.1946507
  -0.6532813  -0.0055958   1.0926471   0.3500785   0.3861770   0.0067217
   1.3295233   0.6712248  -1.1680113   0.5036217   1.9213879  -0.3706367
   0.1506297   0.0663831   0.3630179  -0.5441964  -0.0808600   1.8356464
   0.7576334  -1.7794733  -0.7875150   0.2833594  -0.3185149   0.1390533
   0.2168263  -1.3745027   0.5787737   1.3957530   0.7140488   0.0050213
   0.2497234   0.2302821   0.1754928  -1.4242030   0.8989546  -0.5523552
   0.0611233  -0.3506754  -0.9472787  -0.1383898  -0.0968709  -0.2185327
   0.9883465   0.2856067  -0.1666937  -2.2817862   0.3499765  -0.7424294
   0.0790625   0.2960657  -0.0781258   0.6691158  -0.2935517   0.5980366
  -0.0758060   0.0367175   1.1369426   0.1174611   0.0646307  -0.2316059
   0.3194906   0.2108316  -1.0665830  -0.5027477   1.1938561  -0.7688304
   0.1947871   0.2454392   0.0222950   0.9477553  -0.6325477   0.6226549
  -0.9001094  -0.3994460   0.2691275   0.1591687   0.1008409   0.2492386
   0.4658788   1.8314594   0.6997415   0.7866340  -1.4894015  -0.3388939
  -0.0026066   0.2629190  -0.1498616   0.5201916   0.5247517  -0.4143402
  -0.4836039  -0.3470260   0.5400245   0.0620001   0.1085909   0.0413831
  -1.0219915   0.6719158  -0.1431803  -0.8839814   0.6476637  -0.6832147
  -0.0680496   0.1884794   0.0420312   1.5156461   1.5045190  -1.2071685
   0.4330602   0.3932633  -0.2688799  -0.3139875  -0.0950769   0.0347837
  -1.7418997   0.5310361  -0.3118808  -0.3353545  -0.7914001  -0.1168596
  -0.2349590   0.0413843  -0.0155521  -0.7067780  -0.4470368   0.1628431
  -0.1319900   1.4118974   0.4973686  -0.3005634  -0.0494399   0.2744085
   0.5931665   1.1241583   0.5789478   0.1309887  -0.0586237   0.2372358
  -0.0831219   0.1187047   0.1137593  -0.5861551   0.3441244  -0.5276501
   1.0208967  -0.4060131   0.6140220   0.0409180  -0.0312354   0.1837467
  -0.0415429  -1.0487922   0.9849793  -0.1745031   0.8797572  -0.9934236
   0.3577862  -0.0009448  -0.2229740   0.1842364   0.3332130  -0.4659638
   0.0547963  -0.2695132   0.6383255  -0.0288902   0.0107310   0.3460622
  -0.7583016  -0.6256166  -1.1697179  -0.2348051  -0.2865574  -0.4081504
  -0.1618891  -0.0086674  -0.1447378   0.0617742  -0.2363459  -0.7806329
   0.5542359  -0.6582809   0.0913180   0.1968247   0.2862647  -0.3337045
  -0.6588166   0.3599404  -0.3147188   2.2173295  -0.6783083  -0.1475433
  -0.1014817   0.1223427  -0.1231453  -0.1793922   1.6246555  -0.3520492
  -0.6628395   1.3187215  -0.8476574   0.0680002   0.0482017  -0.4748468
   0.3660046   1.8166723  -0.8779788   1.8611928   0.1515784  -0.3963046
   0.1007502  -0.2263567   0.2270298   0.1842272  -0.8941841  -0.2210190
   0.9311883   0.4726236  -0.4072777   0.1823528   0.0174539  -0.0455854
  -0.3567257   0.8648821  -1.8351034   0.2329958   0.2751952  -1.3097337
  -0.1915966   0.0426031  -0.2301118   0.2383348   0.1533769   0.2959511
   0.6149226   0.2770350   0.8895440  -0.0739999   0.3149430  -0.0595119
  -0.2892962  -1.2251484   0.8181660   1.5444129  -0.2703685   1.2368536
  -0.1402679  -0.1869794  -0.0104578  -0.1436191  -0.3392787   0.1914483
  -0.2456473   1.2924051  -1.2787999  -0.1049263   0.1085492   0.1297163
   0.4055216   1.5026633  -0.1350306   0.2393087   0.9157034  -0.5069841
  -0.2969044   0.4374284  -0.1561211  -1.1226780   0.0705157   0.0038959
   0.5498630  -0.8511561  -0.3851085  -0.1074726   0.1614144   0.1288366
  -0.3986574  -1.3287513   1.0984813   0.5892147  -0.8171856   0.5223001
  -0.0553083  -0.2885388   0.0428983   0.5540351  -0.9369362  -0.6298227
  -0.1850929  -0.9047603  -0.4219498  -0.3651316   0.2812836   0.0323446
   0.0658565  -0.1324099  -0.6410343   2.0275342  -0.2725250  -0.5492695
  -0.1123288   0.1665150  -0.0512494   2.6163092   0.5901125  -0.4887720
  -0.4975146  -0.3618767  -1.5868107   0.0557648   0.0740114   0.2634162
   0.4993033  -0.1437511   0.9378510  -0.9654055   0.4111298   1.3280978
  -0.2254924  -0.0934039  -0.1298457   0.2458788   0.1728658   0.3149906
   0.6381212  -0.3679447  -0.6611271   0.0304825  -0.0612365  -0.2576790
  -0.3537188   0.5699479  -0.2780881   0.4725575  -0.9364920   0.1100731
  -0.0885473  -0.0369087  -0.0357944   0.4918622  -0.2521627  -0.1079597
  -1.2030483  -1.4015276   1.3716049  -0.1887610  -0.2373818  -0.0784903
  -0.0278077  -0.9799482   0.4953010  -1.1328101  -0.3714847  -1.1743704
   0.0233126  -0.0440310   0.1535045   0.1815852  -0.2326167  -0.3228080
  -0.6943396  -0.5761588  -0.6970133   0.3261297  -0.1154414  -0.1775509
   1.3605037  -0.1716335   1.1080142   0.1358975   0.4610120   0.2851376
  -0.2746983   0.2245909   0.1843176  -0.2170891  -0.6151246   0.3840824
  -0.2207175   1.2329780  -0.2798132   0.1603734  -0.4164091  -0.1271732
  -0.7337511   0.5164678  -0.1931148   0.4955977   0.5719000   1.2859867
   0.0999679   0.1347978  -0.0144264  -0.3411610  -0.3654115   0.4103203
  -0.7120980   0.5028818   0.6444917   0.2792809   0.1437988   0.2123015
  -0.3302259   0.3259704   1.2072980  -0.0790304  -0.4613301  -0.1522162
   0.1221430   0.0083211  -0.1395645  -1.6992677  -0.2150154   0.2815880
   0.0116442  -0.3960114  -1.0950358  -0.1321179   0.2605431   0.0591353
  -0.3834176  -0.0952414   0.7305772   0.2318300   0.8176504  -0.6871524
  -0.1913950  -0.3074300  -0.1345419  -1.2829503   0.1333778   0.3212730
  -0.7029110  -0.9105731   0.2761423   0.1974539   0.1180852  -0.2558749
  -0.6446299   0.2183872   1.4351833   0.1938781  -0.4372855  -0.8876145
   0.0309096   0.0436509  -0.1276356  -0.0799611  -0.4931696   1.1137139
   1.0435119   3.2740893  -0.1262128  -0.1035061  -0.0493094   0.0896980
  -0.1666540  -0.8521410   0.0096580   0.2172551   0.4687621   0.0862500
   0.1032839  -0.5915543   0.0582463   0.8274728   0.4341891   0.6171780
  -0.3689986   0.6220089   1.3481508  -0.0018761   0.1807382  -0.0535682
  -0.7802819  -0.7341156   1.7015123  -0.4033224   1.5201813   0.2917222
  -0.2211032   0.0067772   0.5372407  -0.7417106   0.1762564  -1.1713601
   0.3171017   0.1609321   2.5660000  -0.1122337   0.1726986   0.0664336
  -0.6901424  -0.7119159   0.7621174   0.6925889   0.2538563   0.0499190
   0.1122761  -0.0654503  -0.0547399   0.0608115  -0.0273438   0.7425719
  -1.0173012   0.3729081   0.7088459  -0.1013836  -0.0992447  -0.2958642
   0.3018776  -0.1225459  -0.4437743  -0.0959269   1.3565415  -1.0663264
   0.0311993   0.2461168  -0.1032807  -0.0814138  -0.7660858   0.1013560
   1.4014825   0.2816282  -0.4984371  -0.1830895   0.1807466  -0.2916533
   0.2974036  -0.2551836   0.5352436   1.2198777   0.8473726  -1.4527881
  -0.0360224  -0.1299560  -0.4875224  -1.0910226   1.6541984  -0.4243567
  -2.1236000  -0.6170606   0.8149534   0.1601764   0.2630653   0.2860537
   1.0074145   0.9761642   0.0507328   2.4621773   1.1015249  -0.6928983
   0.0436909  -0.1112508  -0.1188172  -0.5445361  -0.7214829   0.1318258
  -0.3551026   0.0161454   1.0175962  -0.4561093  -0.1889881  -0.0067777
  -0.7363111  -0.3603225   0.5133957   0.0218403  -1.6547620  -0.2752693
  -0.2333231  -0.0408145   0.1468104  -0.6531082   0.5410637   0.0045649
  -0.0466089  -0.3528137   0.2053411  -0.1200578   0.1025343   0.1518166
   0.2487383   0.0590589   0.3614633   0.6312662  -0.9111366   0.5229778
  -0.0785298  -0.0091322   0.0271939  -0.0933617  -0.2732222   0.8714149
   0.3933132  -0.9065949  -0.0085179  -0.0378180  -0.2164304   0.0996771
   1.1906705  -0.1144821  -1.2340484  -0.2876512  -0.1220350   0.9067745
   0.0793137  -0.0586488  -0.2387156  -0.1190872  -0.9325410   0.7181739
  -1.0476682  -0.3452778   2.1850541   0.3445123   0.0275772   0.1642267
   0.1736376   0.0870691  -0.2453211   0.3317600   0.5966574  -0.1590427
   0.1877417  -0.2201598  -0.0633442  -1.0009947  -0.7645053   0.2768991
   0.1280901   0.6363118   0.3713892   0.1133315   0.1274790  -0.1209784
   0.5401464   0.2070469  -0.4335849   0.1314078   0.3483834   0.6444564
   0.2922592   0.0667200  -0.1925494  -0.9207584  -0.2716532  -0.2323340
  -0.1097747  -1.0155454   0.1689617  -0.2731349   0.0149006   0.1118136
  -1.2599921  -0.1737263   1.1376430  -0.2969707   0.6863964  -0.5852597
   0.2229641  -0.2503901   0.1754594  -0.2487099   0.0432666  -1.3864139
   0.2748000  -0.0511445   0.6736107   0.4531307  -0.0066585   0.0264457
   0.2732481   0.7859243  -1.0280397  -0.1206523   0.0876675   0.5021409
   0.2872593   0.0493094  -0.1303989   0.2359353  -0.2505449   0.6200059
  -0.0956575   0.1492148  -0.0599194  -0.1583927  -0.0020362   0.1364994
   0.6749813  -0.2382454   0.8954577   1.2938237  -1.3999231  -0.7157679
   0.3693846  -0.0162099  -0.2535331   0.0487130  -0.5891516   0.0250934
  -0.8440523  -0.8705251  -1.2555586  -0.1291078  -0.1306451  -0.4139244
   1.3594408   0.2811236  -1.0072571  -1.5745780  -0.4546754   0.1163548
  -0.4327216   0.2717073   0.2633119   0.3387460  -1.5767138   0.0151375
  -0.7221243  -0.6399479   1.7116165   0.2830878  -0.2834443  -0.2303123
   1.2973454  -0.4958095   0.0835236   0.4413501   1.0446194  -1.1627192
   0.0869756  -0.4200480  -0.4301001  -0.1307890   0.2075835  -1.0433451
   0.9246029   1.3323270  -0.7599079   0.0826384   0.2506366   0.2677863
   0.1895395   0.3115842  -0.5709884  -0.4477215  -0.4227467   0.8124007
   0.1165315  -0.0013668  -0.3937716  -0.5023157   0.0876213  -0.8843474
  -2.2088606  -0.0354802   0.4711358   0.3708623  -0.1102876  -0.0150456
  -0.7792722   0.2371211   0.0906370   1.9002259  -0.0240786  -0.1388881
   0.0882907  -0.0506305  -0.2097526  -0.4062958   0.4718954  -0.2787690
   0.1587847  -0.2341474  -1.1164979   0.2335517   0.1514938  -0.3486640
   0.2207839  -0.0730650  -0.8460166   0.5846184  -2.2194457  -0.2046436
  -0.0017325   0.2754619  -0.1347025  -0.0843886  -0.4721104   0.5167244
  -0.5987968  -0.7076845   0.5531999  -0.0312796   0.1477386   0.1667649
   1.0261923   0.0311714  -0.6387566   0.1881197  -0.6437010   0.4217380
  -0.0061711  -0.2812971   0.0383992   0.2258959  -0.9312968  -0.2605774
  -1.8507389   0.9539056   0.3019203   0.2142437  -0.0120546  -0.0077558
  -0.1506001  -0.5203190   0.3182549   0.2943982   0.4056427   0.3242357
   0.0911966   0.2599501  -0.3184367   0.1907091  -0.0150746   0.3825949
   0.8334355   0.9484969   0.0573141   0.0111855   0.0173037   0.1220428
   1.0267303  -0.5461332   1.0895096  -0.9780978  -0.2752896   1.0021962
  -0.0826444   0.2099510  -0.0939370  -0.4437679  -0.3054260   0.3419394
   1.5785873   0.4960357   0.3719555   0.1727075  -0.2397516   0.1090614
  -0.8341297  -0.4312831   0.5254552   0.7180524   0.3579670   0.9110756
  -0.1887119  -0.1230215  -0.0746620   0.2425456  -0.3384504  -0.7299031
  -0.5680048   0.6566340  -0.8759299   0.2311727   0.1865429   0.0389690
  -1.1437511  -0.4641456  -0.6828735   0.8613907   0.3237853  -0.6413102
   0.0138985   0.0294766   0.1494083  -0.8697050  -0.4186286   1.7703698
   0.3832037   0.3833168  -0.5844822  -0.1768521  -0.0773144   0.2118859
   0.8714727  -0.0984469  -1.4405932   0.3121822   0.3109130  -0.0521012
  -0.1076799   0.1155497  -0.2584021  -0.2389018  -0.6746498   0.3128584
   0.0398052  -0.7379922  -0.3058774   0.1529220   0.0100641  -0.1762300
   0.4418636  -1.3258449   0.1120499   0.2937023  -0.5352093  -0.4580495
  -0.0152564   0.0300863  -0.0883547  -1.0310197  -0.1707642  -1.5214020
   0.8384694  -0.4893945   0.0980071   0.0238725  -0.0044986  -0.0240096
  -0.4841884   0.1738186   1.9370823   0.2034417   0.7938495  -0.3088444
   0.0194837   0.2639940  -0.2472887   0.1678662  -0.5594279  -1.6916879
   0.2178593   1.7356757  -0.0748489  -0.3138678   0.0105640  -0.0232253
  -1.0278928  -1.4028914  -0.3591803   0.1587758   0.6788125  -0.1641300
  -0.0905246  -0.0745181  -0.1555087   0.7294788  -0.3184548   1.5683776
  -1.1724854   0.0410723  -0.1653966  -0.0944155  -0.0356286  -0.0698396
   0.3909478   0.5618406   1.6347268   0.1067502   2.0354798  -0.7822686
  -0.0680378  -0.0807718  -0.1714525   0.4148634   0.3277652  -0.8973192
   0.2766686   0.1047961  -0.3873253   0.1186197   0.1333491  -0.1200912
   0.9540823   1.5492247  -0.9715388  -1.5510519  -1.0177342  -0.3455130
   0.2727303   0.3670803   0.0260755   0.7819584  -0.2945033  -0.0841869
   0.5320793   0.1163942  -1.4736707   0.0934038   0.1679633   0.0040318
  -0.8757762  -0.1478790   1.0164700   0.4938921  -0.5299683  -0.4913430
   0.0990401   0.4238798  -0.1910284   1.6405613  -0.2002389   0.0889369
   0.2626587  -0.1074679  -0.6455132  -0.2364110   0.1674561   0.2185676
  -0.8294349   0.4014670  -1.2024548   0.2048724   0.8297068  -0.0691300
   0.1598569  -0.0302648   0.1500882  -0.4568455  -0.0174503  -0.1741131
  -0.1667784   0.1581852  -0.2168827   0.1581737  -0.2883610  -0.1646686
   1.8420389  -1.8736871   0.7945104  -1.5273250   1.3216729  -0.9539660
   0.0167155  -0.0296118  -0.0144463   0.3581264  -0.1259745   1.0016152
  -0.0547018   0.0482837  -0.4144432  -0.1037226  -0.0599956  -0.0522220
   0.4253505  -1.1006188   0.3547079   0.7618515   1.3918411   0.2777866
   0.0142964  -0.0226849  -0.1305952  -0.8072376  -0.6425378  -0.1594298
   0.6882021   0.5308285   0.9583338  -0.3102803  -0.2884694  -0.1785707
  -0.8818896  -0.6247365  -0.4069980  -0.0190506  -1.2830062  -0.3804381
  -0.0824691   0.0407605  -0.4262015  -1.2030400   1.2511488  -0.3028292
  -1.3387446  -0.9182938  -0.3365872   0.0907007   0.0055883  -0.1063794
   0.4767296   0.6562140  -0.6480886  -0.3537303  -1.4127917   0.8432988
  -0.1853410  -0.1456473   0.0797492  -0.4206975   0.2125487   1.1526302
   1.2403679  -0.5989206  -0.1290721  -0.0545856   0.0369283  -0.2435590
   0.1975918  -1.4289320  -0.0395085  -0.6458285   0.8804748   1.2583743
   0.1238684   0.0651017  -0.2680188   0.3661661   0.4116059  -0.3988460
  -0.1389561   0.5060954  -1.3010695  -0.1564629   0.0460321   0.1166352
  -0.1202076  -1.1288395   2.3749619  -0.3701774  -0.0775466   0.9701768
   0.0252924   0.0897699   0.2914693  -0.0040621   1.1696171   0.8485048
  -0.7935139   0.7112164  -1.4379503  -0.1557190   0.1004629  -0.2428142
   0.7474367   0.1393474   0.8010441  -1.2036467  -0.8985834  -1.0050246
  -0.1361898   0.2851427  -0.0517340   0.4263543  -0.3007298  -1.1088363
   1.2834185   0.1866156   0.4335178  -0.1193278   0.0874084  -0.0251521
   1.1030222   0.5359816   0.7341756   0.2530227  -1.5100414  -1.0741563
  -0.1727902   0.0657519   0.0404145  -0.6085477  -1.3054985  -0.2569750
   0.7837704  -0.0172547  -1.5532482  -0.3827820   0.1474487  -0.3043828
   0.5648853  -0.6687663  -0.0044105  -1.6406100   0.3671397  -1.3381779
   0.0705391   0.1636882   0.0347507   0.6479607  -0.4536896   1.0934303
  -0.6254411   0.7603826   1.0890492   0.4166441   0.0871498   0.3284960
   0.1678624  -0.6581600  -0.6229290  -0.1792291   0.0466034  -0.3114618
  -0.0080018   0.0509107   0.2182488   1.9926524   0.7227855  -0.1482493
  -0.3920228  -0.2828324  -0.5565267   0.1291147  -0.1448130   0.0607620
   0.4408550   0.1158609   0.0986893   0.2571303  -0.1512950   0.6825548
  -0.1244116   0.3881369   0.3519629  -0.4347531   0.4152499  -0.3247463
  -0.6015252   0.0361603   0.7993659  -0.0404101  -0.1968017   0.1413740
  -0.3153915   0.5903688   1.2097377   0.6060532  -1.0014795  -0.1028394
   0.0104474  -0.1133838  -0.2093570   0.9543610  -0.2402778  -1.3651545
   0.5251371  -0.6247578   0.2017867  -0.3074582   0.3787324   0.0065307
   0.4232148   0.0124775  -0.6315459   0.5625849  -0.8217124  -0.1662763
   0.2068421  -0.0380394  -0.2178031  -0.1082958  -2.2910044   0.1236595
   0.1080039  -0.7229192   0.0155825  -0.2208894  -0.0070254  -0.0746083
  -0.5696793   1.2208809  -0.0548658   1.2075850  -0.3101953   1.1216815
  -0.2893505  -0.3066557  -0.0815776   0.3333826  -0.7332748  -0.1144663
  -0.3420804   0.7864226  -0.4352617   0.0019823   0.0443168  -0.1128406
   0.5645874  -1.9586899  -0.5382761  -0.2934529  -0.0572977   0.2990503
  -0.0798403   0.0767643  -0.3488646   0.4581014  -0.7428313  -0.0501316
   1.0169326   0.2878330  -0.2167239   0.0194886  -0.4996503   0.3320206
  -0.1639647   1.5155312  -0.8192436   0.2925340  -0.3493128   1.9298273
   0.1419321  -0.0234472  -0.0725857   0.2251585   0.2616099   1.0697715
  -0.8642370  -0.3638801   0.5675072   0.0091916  -0.0651615   0.0787004
   0.6086035   0.3756967  -0.0795626   0.3339257  -0.8189301   2.3132384
   0.1208459   0.3549057  -0.3233968   0.0875933   0.8585259   0.5827325
   0.0338537   0.2335682   0.4651151  -0.0003535   0.1166666   0.0482076
  -0.7926357   0.1739363  -1.0447042  -0.8820364  -1.4450212  -0.6341881
  -0.0178363   0.2665462  -0.0695204   0.2764306  -0.1258966   0.2858965
  -0.2488754  -0.0266864  -0.7288861  -0.1590561   0.0415950   0.0756310
  -0.5845265  -0.2565251  -0.5757254  -0.3445937   0.2896347   0.1486049
  -0.3062676  -0.0114254   0.1379589  -0.4524481   0.4572545   0.5167736
   1.1379625  -0.5476858  -0.2203760   0.0344880   0.3059478  -0.0269703
   0.0988868   1.4666562   1.0484071   0.7244743  -0.6264125  -0.3236748
  -0.0033906   0.0385265   0.1093954   0.4018519  -0.1007152   0.3718719
   0.7140572  -0.1219936   0.9475317  -0.2055555  -0.0849053   0.1974426
  -0.7786193   0.7412074  -0.9004625   1.8466605   0.0153767   0.7675697
  -0.5237070   0.1015084   0.0198638  -0.6264155  -0.3069844  -0.3040412
   0.2000453  -0.4802379   0.3449402   0.2366124  -0.0794826  -0.2545263
  -1.0619323   0.2769744  -0.3838873   0.6156269  -0.6073257   0.7402492
   0.2696446   0.1938093   0.1381157  -0.6919686   0.8262770  -0.6670641
   0.2663605   0.1797243  -0.3115819  -0.3149420  -0.1638102   0.0279077
  -0.9745696  -0.5324641  -1.0565507   0.6108974  -0.4943983  -1.0173657
  -0.1358415   0.1741183   0.0902409  -0.8998318   0.2607995   0.2122455
   0.5814507  -0.9434350   0.9585910  -0.3452494   0.3687936   0.0528075
   0.5821853   0.3962429  -0.0219227  -0.5528773  -0.9023752   0.4543275
   0.2860487   0.0678611   0.1164043   0.4693478  -0.6870480   1.6721542
  -0.6461338  -0.5239168  -0.3416608  -0.1844886   0.2765234   0.2316974
   1.4879940  -0.0842605   0.6036159   0.3675823  -0.9154732   1.2541358
  -0.0883373   0.2300639   0.2534433   0.7164228  -0.2533224  -0.7594852
  -0.6515897   0.4739233  -0.6562173  -0.1323336  -0.1711272   0.0947928
   0.7019885  -0.5667567   0.0338385  -0.9725194   1.2734636   1.3516905
   0.0314495   0.0223276   0.1233615   0.0870337   0.7588947   0.1142340
   0.2396086  -0.1925768   0.4570740  -0.0676393  -0.1781581  -0.1953587
   0.1450582   0.9942868   0.5679240  -0.7469448  -1.3530114  -0.3927440
  -0.0969707   0.1007102  -0.0005455   1.2418996  -0.7444521   0.5640417
  -0.5370548   0.2457495   0.0159197   0.0232675  -0.1372606  -0.0537465
   1.4030303  -1.3566610   0.4072814   0.2612064  -0.0739399   0.1255783
   0.0161611   0.0053414   0.0077246  -1.5526084  -0.2850535   0.6410377
  -0.8609329  -1.1402743  -0.9313505   0.1370369  -0.0092488  -0.2658507
  -0.1475753  -0.1032012   0.0267355  -0.8308063   1.7363291   0.5156533
   0.1165171  -0.0077313  -0.1952893   0.0598203   0.2807114   0.6893572
  -1.3147666   0.3728019  -0.5069755  -0.3598884   0.1726320   0.0634246
  -0.8131550   0.8665742  -0.3418964   1.0121304  -0.1167782   1.5704261
  -0.2009882  -0.1999043   0.0449438  -0.3272524   0.0478766   0.4216603
   0.5717617   0.8037651  -0.1969352   0.0257850  -0.0928527   0.2722560
  -1.3006389  -0.5258362  -1.1462001  -0.5503452  -1.0571172  -0.6029623
  -0.1086390   0.0568139   0.1611437   0.3885090  -0.2535599   0.4129010
  -0.7797369   0.0790237  -0.4685457  -0.1365937   0.1376794   0.1741519
  -0.5392979   1.0829079  -0.5831001   0.4797431  -1.0957866  -0.1540438
  -0.1483151   0.2283766  -0.3284592   0.5367867   0.2370161   0.8515584
  -1.1499807  -0.0553025   1.3974541   0.0243035  -0.3902336   0.1437851
   0.7429613   0.4842390   1.2724437   0.0995996  -0.3417255  -1.6084994
   0.1444605   0.3652990  -0.0540897  -0.1879870   0.1702868  -0.0964987
   0.0156406   0.4037843   1.0038934   0.0700636   0.0603790  -0.1054965
  -0.5553597   0.9937016  -0.1586877   1.0031545   0.6519025  -1.4215509
  -0.0140712  -0.0883262  -0.1580614  -1.0488600  -0.4513452  -0.4047086
   0.3974320   0.0945701   0.9799260  -0.1843889   0.1469434   0.0188156
  -1.6116128  -0.2969175   0.1323584   0.9339726  -0.5596849   0.3909302
   0.0565143   0.1295802  -0.0000493  -0.1759031   0.1129215   0.3929976
  -0.2432633  -0.1998385   0.5576409   0.0752649  -0.1256007   0.1413856
   0.0181302   0.1972738  -0.6303869  -1.1880313   0.3525624  -0.6398650
  -0.0989142   0.1309683  -0.0478474   1.5570016  -0.1276006  -1.1448605
   0.4165139  -0.3737741   0.4791560  -0.2238244  -0.0535716   0.2819116
   0.7586152   1.0782365  -1.2253193   0.6153080   0.0726476  -0.3681830
   0.1841436  -0.0453710  -0.0446457  -0.9681615   0.1312019   0.8341911
  -1.9335610  -0.1576190   0.6942705  -0.0766989  -0.2358141  -0.1596440
   0.1329866   0.6130041   1.0073171  -0.0244773  -0.7868302   0.2481865
   0.0581199   0.4713577  -0.0330998  -0.0153285  -1.1818457  -0.2961276
  -0.7360577   0.3665791  -0.6843249  -0.1094084   0.3130202  -0.1847576
  -1.6007520  -0.8759056  -0.0850626  -0.1104804  -1.1768073   1.0163751
   0.0788884  -0.3232231  -0.1846872  -0.8144933   0.6914757   0.2065142
   0.6966824   1.4924021  -0.3509898   0.4910865   0.0369123   0.1436893
   0.0734987   0.3015941   1.1151316   0.6972799   0.6627264  -0.0903914
   0.2152595  -0.1368165  -0.0415599  -1.1308208  -1.0548811  -0.7577997
  -0.1166342   1.4116373  -0.3515342   0.0504389  -0.4560718  -0.4926317
   0.6839499  -0.6187141  -0.2265273  -0.5694217   1.1520370  -0.6003400
   0.4684455   0.0439606   0.2588250  -0.0209608  -0.2988500  -0.8914242
  -0.2452121   0.5998592  -1.3618405   0.0016765   0.0428674   0.2244761
  -0.6259559   0.5258312  -0.8561351  -0.9490608  -0.5680404   1.0940585
   0.0992485   0.3449366  -0.0477931  -0.7708437  -0.2688326  -0.1066845
  -0.1309275  -0.1978474   1.3965527   0.0326251  -0.4301580   0.2377337
   1.2178079   0.6010626   1.0746045  -0.6584768  -1.3790259   0.0679606
   0.3114474   0.1211518   0.0588392   0.2111762   0.3274322   0.1323737
  -0.5726539  -0.5961245  -0.5598880  -0.1679275   0.0582746  -0.1464914
  -0.1845074  -1.0862721  -0.1819815   1.4084016   0.4236115  -1.4349326
  -0.0508727   0.3682982  -0.1239956   0.3146113  -0.1497085   0.5765345
  -0.5214884  -0.7772662  -1.2559655  -0.0598816   0.2022655   0.2238893
  -0.4713635  -0.8271918  -0.0389790   1.0893346  -1.1596599  -0.6073396
   0.0843853   0.0781610   0.0371305  -1.3089257   0.2680409   0.9080510
   0.6078047   0.9097555   0.0978789   0.1733711  -0.5115439  -0.0892470
   0.1410485  -1.3106825   0.6967975  -0.5241281   0.8421223  -0.2001976
  -0.1266151  -0.0015710  -0.1308184  -0.8712378   0.9918115   0.4526417
   1.4147859   0.1925546   0.9978649  -0.1729337   0.1381545  -0.2722419
  -0.3347784   0.6689368  -1.3581394  -0.0095247   1.1469424   0.0554735
  -0.1456911   0.1118855  -0.1834086  -0.5137087  -1.9057142   1.9920409
   1.7955641   1.5606327  -0.5590236  -0.2177468  -0.3621168   0.0778698
   0.9176469  -1.6831069  -0.8383842   0.8641296   1.3101158   1.9249083
  -0.2183143   0.0482178  -0.1223796   1.6351435   0.1787123   0.5014751
  -0.8184196  -0.0760390  -1.5002002   0.1097243   0.5115432  -0.2632833
  -1.5497031   0.6846342  -0.3514397   1.6861802  -0.8255681  -0.3643139
  -0.0050995  -0.1993053   0.3553481   0.5149833   0.9788594  -0.3553106
   1.9664768  -1.2028737   1.0459578  -0.0449792  -0.1114549  -0.0547072
   0.5066041   1.1949208   1.0120856  -1.5634859  -0.2322824   1.3258786
  -0.3336718  -0.0746541  -0.3124760   0.2798984  -0.0770906   0.5618857
  -0.3085302   0.5615231  -0.1772574   0.1474734  -0.2078140  -0.3795673
   0.3909705  -1.2735609   0.1972135   1.0044068   0.3649845   1.1713015
  -0.0719569   0.3753056  -0.1539343   1.0594827  -0.7960604   1.9212846
   0.4414006   0.3914216  -0.5103389  -0.4681251  -0.0532946  -0.1683270
   0.3260922  -0.5598432  -0.9639516   0.1793855   1.4794397  -0.3084211
   0.1135861  -0.1006353  -0.0092351  -0.3088721   0.2938596  -1.0848839
  -0.8115752   0.6375725  -0.4961281   0.2106488   0.0010028  -0.1139673
  -0.2466910  -0.4277786   2.1011610   0.8954017   0.0081660  -0.7960843
  -0.0542593   0.2929496  -0.1235997  -0.1201211   1.1402310   0.0352031
  -0.7300118   0.3400914  -0.0969351  -0.0664993  -0.2068481   0.0154341
  -0.5431542  -0.1898571  -1.2121680   2.1268456   0.2353904   0.5919296
  -0.1994771  -0.0984175   0.0762866  -0.4088470   1.9836994   1.2871002
   0.5809513  -0.8806859  -0.5299378   0.0756171  -0.2974447   0.0212627
   1.7407929  -0.5391899  -0.2004122  -0.5695399  -0.3235923   0.4459434
   0.0264851   0.1769481   0.1906461  -0.2112771   0.2083653  -1.6041753
  -0.9770489  -1.1070061   0.4931257   0.2845967   0.0533998  -0.1308937
  -0.0059404  -0.3402202   1.4332037   0.1641726  -0.1111121  -1.3033946
  -0.0683413   0.4343487   0.0645808  -0.2020029   0.6070985  -1.1650543
  -0.1927151  -0.2227602   0.0390074  -0.2179063  -0.0313857  -0.1785074
   0.8316334  -0.3479226   1.4837613   0.5290241   0.3898245   0.0182830
   0.1666828  -0.0136203  -0.0728445  -1.5735368   0.0592553  -0.7922786
   0.6295537  -0.2852355  -1.0666614   0.0068246  -0.0783470  -0.1757918
   1.2286704  -1.3294595   0.5002422   0.5342395   0.0865324   0.3590496
   0.0619396   0.1247589   0.3324946  -0.1098713   0.9980502   0.2730737
  -1.0969192   0.3683494  -0.6116760   0.1766898  -0.1028891   0.2239535
   0.7308161  -0.5266141   1.6621383   1.1899335   0.2064049  -0.9086000
  -0.0411440  -0.0603432  -0.1590368   1.1480783  -0.7133700  -1.0929960
   0.5946507   1.0620246  -0.5796934  -0.0922704   0.2751471   0.0873923
  -0.7720836  -1.2398760  -0.3045225   0.5241610   0.2691801  -0.1280201
  -0.0901716   0.0418987   0.0479986  -1.2974213   0.3429388  -0.3263099
   0.3005559   0.5893768  -2.1360834  -0.4723216  -0.0252122  -0.3567265
  -0.6395271   0.7957937  -0.2853523  -0.7217827  -0.5000013  -0.0032313
   0.1465387  -0.0780448   0.1558740  -1.0159557  -1.1300356   1.0691663
   0.6874769  -0.5367720  -0.9798306  -0.3191301   0.0955009   0.0851201
  -0.7656236   0.4791047  -0.0312514   1.5276309   0.6673641  -0.6650666
   0.0625150  -0.0481891  -0.0181166   0.4421493   1.4454907   0.2158724
  -0.5221326   1.1281818   0.4633247   0.0721548  -0.0419278   0.0108093
   2.1174147   0.2601056  -0.3012033  -0.2770546   1.2240540  -0.6250847
   0.3019893   0.0076807  -0.2982354  -0.0837949   0.2892617  -1.4218477
  -0.6385615   0.3943338  -0.4152980  -0.1120209   0.0265139   0.1120520
   1.1493089   0.1667861  -0.3587716   1.0227859   1.3614213  -0.1073566
   0.3605163   0.0332790  -0.0556663  -0.4774602  -0.2173712   1.5111566
   0.0801281   1.2286112  -0.5302873   0.1927848  -0.0998423   0.1010140
  -1.3565044   0.0992468   1.0804572   0.1977408  -0.9571168   1.3777511
  -0.3005479   0.0152009  -0.1406762   1.7125835  -2.5202117   0.8567998
  -1.0429705   0.8474197  -0.3797603   0.0010242  -0.2871951   0.0127970
   1.4486336   0.1509400   0.4548386   0.4988738  -0.0099061   0.1681769
   0.4230545  -0.3890825  -0.1076620  -0.5248524   0.2765204   0.1763356
  -0.2942272  -0.3977393  -1.7184327   0.0388650  -0.2619257  -0.1886097
  -1.2051625   0.0899290  -0.0507765  -0.1377961  -0.5332886  -0.5480987
  -0.2137328   0.0029724   0.0646685   0.1150208  -1.4384010   0.4306323
  -0.5326687  -1.0191071   0.1190371  -0.0468666   0.0763183   0.0934636
  -1.1942339   0.2395092   0.5139163   1.2476475   1.1943210  -0.6506317
  -0.1654978  -0.1475602   0.0347043  -0.7518547   0.1186595  -0.4938465
  -0.7507473   0.0694523   0.7441522   0.1213021   0.0273350   0.1283716
   0.9310458   0.9821754   0.4645568   0.3775752   0.1358064   1.4632490
  -0.1026264  -0.0064811  -0.0488048   0.0308497  -1.3843237  -0.5570187
  -0.8456478   0.7168126   1.5665694  -0.4290365   0.0432806  -0.1582303
  -0.4801752   0.8304863   0.2745990   0.0653200   1.2118925  -0.0744315
  -0.0387537   0.2170610   0.2086227  -0.3834063   0.2924342  -0.4921542
   0.2821116  -0.3098280  -0.6103986  -0.3287463  -0.2421712  -0.2914212
  -0.4107732  -1.3557628  -0.0805854   0.1868752   0.1921352  -0.2968252
   0.1040804   0.0781096  -0.1641951   1.6151834   0.4886958   0.2590191
   0.0892145  -0.0799527  -0.1811894  -0.1153501  -0.0937320   0.0021718
   1.2074817  -0.7332598  -0.7172043  -0.3282044  -1.3130561   0.3418974
   0.1849007  -0.0584041   0.1771273  -1.3516505   1.0539596  -1.7804468
   0.9868495  -0.8774137   0.6974065  -0.2389659  -0.1036743  -0.0780157
   0.0992789   0.9518841  -0.4328388  -0.0947030  -0.1023982   0.1935980
   0.0872278   0.0547316  -0.2678152  -0.5535591   0.8278989   0.8855456
   0.3337774  -1.0061849   1.4003267  -0.4269760  -0.4076949   0.0281350
   0.8018497   0.1044905   0.2324029   0.0034228  -1.0121975  -0.4658124
  -0.3818450   0.2069753  -0.1174233   0.3341462   0.1241772  -0.8915892
   0.3732937   0.6973632  -0.3588772   0.0498761  -0.2671349  -0.1093622
  -0.8421879  -0.5518025  -1.0885181   0.4192450   0.6098751   0.7721492
   0.0663616   0.0893653   0.0426695   0.9184028   0.0663178   0.1455104
  -1.0691361  -0.9328353   1.1925792  -0.5056318   0.0431286   0.1299767
  -0.0531368  -0.1794388  -0.8724819   0.8048543   0.3718117   0.3332268
   0.2728038   0.0928329  -0.1692421   0.2476469   0.5131897   0.8638368
  -0.2473722  -0.7789119   0.1953426  -0.0305139   0.2155245  -0.0403732
   0.1159382  -1.3126804  -0.4719057   1.0347018   1.3022615   0.0499088
   0.0332818   0.2483888   0.2340585   0.1279281   0.9106200  -0.4786189
  -1.3164093   0.5125919   0.9448202  -0.0175424  -0.0135690  -0.0859950
   0.9176067  -0.1839886   0.7011873  -0.3270456   0.1282254   0.2311365
  -0.0182300   0.0885154   0.2496416   1.3810076   0.1323629   0.8292305
  -1.6441951  -1.1837211   0.7669531   0.1630707  -0.1762637  -0.3260282
  -0.8100355  -0.4082178   1.1394105   0.9247768   0.3390193  -0.1402419
  -0.0060519  -0.2096989  -0.2238851   0.2142067  -0.2667269  -0.1199728
  -0.1267149   2.0072339  -0.2640528  -0.3736416   0.2489218  -0.0148329
   0.3836600  -0.6271448  -2.1635783  -0.2255266   0.5127191   0.0508996
  -0.0342423  -0.0280656   0.2598798   0.0367752  -1.0966778  -1.2630410
   0.4972781  -0.2382056   0.4325759  -0.2821201  -0.4243768  -0.3152987
   0.9124780  -2.4887152  -0.0869038  -0.6604773  -0.5846488  -0.9729373
   0.1285966  -0.3781794  -0.4382211  -0.3417700  -0.7530277   1.2984562
   1.0189376   2.2404947   0.3747364  -0.0548886   0.3064747   0.0522518
   0.8827052  -0.0264839  -0.6182802  -1.2194706  -0.6730270   0.2568359
  -0.2293246   0.2616352  -0.3214477   0.3169360  -0.1539268   0.5400705
   1.5685188  -0.3874820   0.1089228   0.1382500   0.1777980   0.0112337
  -1.5351582   0.4329326   0.0159664   0.7748266  -1.2080289  -1.1644752
   0.2427171  -0.1587020  -0.0853908   1.0354816  -0.5505100  -1.2812412
  -1.1366924   0.8372530   1.1191590   0.1336847   0.0460824  -0.1701780
   0.2953224  -0.4726075  -1.9932710  -0.0603937   1.2653890   0.1529179
  -0.2618289  -0.2419877  -0.0342588   0.6839460  -0.3994204  -0.2889023
   1.4010524  -0.3163910   0.3428647   0.0978126   0.0289360  -0.3633295
  -0.5971534  -0.7205160   0.2827034   0.3742402   0.3304210  -0.4371241
   0.1920020  -0.4393051   0.1952298   0.7704028  -0.3557463   0.6471756
   1.0490422  -0.0619864   0.1651060   0.4027900  -0.0001643  -0.0210649
  -0.7222248   0.1955899  -0.4293281  -0.5072374  -1.4411619  -1.9154383
  -0.3457898   0.3664506  -0.1925133   1.0499938   0.3695463  -2.1346920
   0.0649313  -0.4884197  -0.4570198  -0.1890936  -0.2808805  -0.1066230
  -0.3835154  -0.2109225  -0.4083952  -0.8214384   0.2132511  -0.9996425
  -0.1771371  -0.3282990  -0.2825206   1.0961845  -0.1629130   0.0662785
  -0.3692558   0.3239564   0.0467634  -0.0532379   0.1582219  -0.0236118
   1.7545872   0.1693562   0.7753680  -0.8624521  -0.5736647  -0.0435945
   0.2363898   0.0876667   0.1056027   0.1620025   1.2496895   1.1649376
  -0.0856429  -0.7367013  -0.0752147   0.0571051   0.0349820   0.1292337
  -0.3400887   0.3473904  -0.0253626  -1.0185133   0.3294877   1.0213870
   0.0890179  -0.2719839  -0.1086289   0.0938512  -0.6890070  -0.2333846
   0.3260004  -0.9614249   0.4212301  -0.1310418  -0.0870565  -0.2208877
   0.0506432   0.4709622   2.1257813   0.2208864  -1.8589231   0.3251266
  -0.3002054  -0.2448982  -0.1122463   0.8200608   1.2385703  -1.4589570
   0.3906354   1.4096817  -0.3516763   0.1387041  -0.1491128  -0.1765586
  -0.4460897   0.6101779   0.0174255   0.0122419  -0.5667937   0.2177754
   0.1097328   0.1026797  -0.2226810  -0.2807897   0.1334206  -0.8142415
  -0.4711159   0.3043932  -0.2063313  -0.4213279   0.0284574   0.2647136
   0.1904580  -0.5661613  -0.0596592   0.0245577   0.8297477  -0.1487518
  -0.1855018   0.1926941  -0.3333345  -0.5712241  -0.3954673  -0.9817106
   0.3560838  -0.6063333   1.0211766   0.2258315  -0.3611880   0.0013180
   0.0591199   2.1698685   0.6300224   0.1572349  -0.0232440  -1.5657443
   0.2989850  -0.0576218  -0.1079431  -0.7260337   1.5698191  -0.6103508
  -0.7444918   1.0084159  -0.4205225   0.2706295   0.1436003  -0.3646894
  -1.0148782   0.5365476  -0.1090987  -0.6402532   1.6396151  -0.3963255
  -0.0519953  -0.1252943  -0.1446717  -0.1841676  -0.1201674   0.2686188
  -1.3086376   0.6775512   0.9512650  -0.3581314   0.1198608  -0.3738259
  -0.4760050  -0.6612446  -0.2693939  -0.8681656  -0.0844257   0.2266878
  -0.0102437   0.0982120   0.1915084  -0.9418587   0.0616850   1.3555923
   0.6794344   1.2683705  -1.2788661  -0.0064550  -0.0077075   0.0669957
   0.8485738  -1.1170733  -0.9944035  -0.8453815   0.7498730   0.4224021
  -0.0483214  -0.1331975  -0.2205680  -0.0200846   1.6899023   1.3649886
   0.1287509  -0.8641974  -0.2981531   0.3733102  -0.0612809   0.1419508
   0.9984056  -0.4169647  -0.4327243   0.0588764   0.2478421   1.5317417
   0.0190755   0.0742470   0.2110915   0.7651286  -0.2470504   0.4338579
  -1.3342738  -0.6793355   0.9149255   0.1005189   0.1161781  -0.0298312
   0.3003577  -0.1141741  -0.1323806   0.6523280  -0.0763826  -0.6310484
  -0.2901658  -0.2115526   0.1034852  -1.6082549   1.1077867  -1.2425438
  -1.7573144  -1.2185063  -0.5848759   0.0390878   0.2596202   0.1452651
   0.1157938   0.5585813  -0.1775211  -0.6715649   0.5715180   1.1294525
  -0.1753912   0.0028001  -0.3355351   1.3179992   0.5409564  -0.5236224
   0.3472728  -1.4026488   0.8300733  -0.1545535  -0.2028791  -0.1223991
   0.0485189  -0.1178997   0.5198773   0.2136079  -0.6956906  -0.4399378
  -0.1060591   0.4218593  -0.1087739  -0.3972346  -0.2189385  -1.1491239
   0.0611539   0.7970105  -0.6391898  -0.1208148  -0.0331189  -0.2838926
  -0.3683641  -1.5160049  -0.4438799  -1.0079250   1.3555266  -1.1673312
  -0.0705845   0.1782405  -0.2558939  -0.5648584  -1.3047155   1.2268665
   0.9548174   1.1191185   0.2510711   0.1370995  -0.0293264   0.2404341
   0.8884019   0.0685528  -0.4919428  -0.0700136   1.6785456   0.0180646
   0.0176381   0.2720038   0.1113735   0.4912127   1.2383533   0.4075361
  -0.8131169  -0.7787323  -1.2084439  -0.1610088   0.4096761   0.3829257
  -1.3115321  -0.7224823   0.9094720   0.7691018  -0.3532229  -1.1283951
   0.1076249  -0.1452610   0.0457585  -0.6625181   0.5380922   1.2686690
  -0.2912108   0.9238386  -0.9045348   0.1665484  -0.3659304  -0.1231227
   1.5414609   0.6662166  -1.3309543  -0.2881929  -1.9487320  -0.8817863
   0.1413355   0.0015006   0.0068820   0.1508451  -0.3899433   0.8264711
  -1.1529568   1.0329638  -1.0211996  -0.2391864  -0.0270674  -0.0016245
   0.6877658   0.2904946  -0.3332199   0.1099711  -0.2160620   0.9012960
   0.3350929  -0.1474112  -0.0864874  -1.2624693  -0.8462735  -1.3354168
   0.7675905   1.4189916   0.2921008  -0.1703783  -0.2244387  -0.0953622
   2.5925102  -1.5254239  -0.5524776  -1.7338698  -0.5779786  -0.1721193
   0.4870113  -0.1593967   0.2430010  -0.2145870  -2.1675668  -0.5525217
  -0.3909230   0.3682712   0.0223653  -0.3671166  -0.0254166   0.2372935
  -0.9670569   0.5075004  -0.7577275  -0.1375003  -0.3763424   0.1926379
   0.2106811   0.1432638  -0.2079133  -0.6526200  -0.2543482  -0.0637834
  -1.3642871   0.0685017  -0.0634721  -0.0698973   0.0717649   0.2328145
   1.1199377   2.0335016   0.0039981  -0.6416526   0.1799675   1.2707995
  -0.0940902   0.0959506   0.2529289  -1.5529703   0.7884728   0.5073175
  -0.0415580  -0.2903073  -0.4681689   0.2452778  -0.0119350  -0.1419570
   1.1428070   0.8814169   0.2067778   0.2738066  -0.3154214   0.2657172
   0.2735641   0.1789121  -0.3114829   1.6183466  -0.9913118   0.2620647
  -0.1786316   0.2525190  -0.0900047  -0.1213332   0.1876268   0.2622689
  -0.3910481   0.1245860  -0.4961783   1.2262130   0.4498211  -0.3440183
  -0.0917869  -0.0690328   0.1103690  -0.9182717  -0.9904796  -2.0613751
   1.0730836  -1.0675219   0.5342438   0.2637797   0.0315868   0.0441524
  -0.4718341  -0.2524739  -0.4460286   0.6915863   0.8406436   0.5340438
  -0.2881119  -0.0783790   0.0905132  -0.4103991   0.5687802   0.8123825
   1.2115620   0.0777962   0.8905482  -0.0046201   0.3124148   0.1301631
  -0.3378621  -0.5290070  -0.6312205  -0.4135550  -1.3950202  -0.7593644
   0.3080990   0.0911954   0.0413137  -0.4111474  -0.0497166  -0.9996387
   0.3201467   0.5725465   0.8200555  -0.0680021   0.2070047   0.1228872
  -0.0876075   0.3305675  -0.2008243   0.2752953  -0.2863635  -1.8302383
   0.0575554   0.1091126  -0.1666039   0.2632123  -0.6065219  -1.8012418
   0.6302444  -0.4656234  -0.6286652  -0.1176508   0.0010395  -0.0108741
   0.0232591   1.3162862  -0.8828687   0.4955339   0.8376186   0.7274347
   0.4966294  -0.2156370   0.0842355  -0.9514689  -0.6718515  -1.4096912
  -0.4574739  -1.1996264   1.0397265   0.1702019  -0.2054902  -0.0205952
  -0.1196088   0.2858891   1.2021381   0.0204267  -0.7968570   0.3256836
   0.2709917   0.1407036  -0.0194685  -0.2586683  -0.7389563   0.2733985
  -0.3606986  -1.6293652  -1.6223317   0.3119702  -0.1265686   0.0292843
  -0.2482616   0.7888834  -0.6061203   2.5347822  -0.0947059  -0.1836193
  -0.3389175   0.2066863  -0.4222302   0.2663164   0.1394834  -2.8228731
  -0.7094691   1.3821647  -0.1074198   0.1342551   0.0858888   0.0638381
   0.1571031   0.4575969  -0.1413215   1.2370580  -0.4262061  -0.4067299
   0.0825536   0.3781474  -0.0738079   0.2598157   0.5074615  -0.4097623
  -0.6297189  -0.0385688   0.9344416  -0.2769087  -0.0856916  -0.2419297
  -0.6374482   0.1404645   0.8135247  -0.2260978  -0.4476622   0.6215902
   0.1268301  -0.0486890  -0.1540477  -1.1085638  -1.0959373   0.1189514
   0.4799048   1.0032197  -0.5225874   0.2917192  -0.3224770  -0.1888828
   0.4028763   1.1750270   0.9981068  -0.0288029  -0.1176052   0.5071294
  -0.3269429  -0.1185687   0.2542874  -0.9079747  -0.3647841  -0.1903122
  -0.3108256  -0.4423110   0.0914830   0.2116492   0.1269139   0.1596278
   1.4973984  -0.6782444   0.0174827  -1.9281559   1.6150508  -0.4120877
   0.0472937  -0.1444813   0.2073818  -1.3396821   1.0188814  -0.5475472
  -0.7225791  -1.7653320  -1.2130947   0.0325848   0.2683024   0.0915429
   1.4311268  -0.6857575   0.5668986  -0.3790158  -0.6763688  -0.6162661
  -0.3878869  -0.2118528   0.5083981  -1.9160144   0.2110177  -0.7906699
   0.6276983  -1.1926799  -0.6399378  -0.1416308   0.3204339   0.3070238
  -0.9329244  -1.8294419  -0.1614036  -0.3345778   0.6625091   0.8370249
  -0.2056456   0.0143631  -0.2922294   0.6791011   0.5758667  -0.3341697
   0.3612144  -1.1848701  -1.1782981   0.0589896  -0.2710790   0.4114586
  -0.4721740   0.0794961  -0.5332875   0.0023541   0.8690541   0.5284441
  -0.0824943   0.1990417  -0.0354237   1.1381036   0.2777311  -1.5291060
  -1.2241771  -0.8568569   0.4464665  -0.1578448  -0.0812771  -0.4360720
   1.1091250  -0.5141931  -0.5836258  -0.2481289  -0.6854696   0.1690569
   0.0762698   0.1542080  -0.0169008   0.8436695  -0.2236519   0.3739277
  -0.0910964   0.1927145   1.0002087   0.4367771  -0.1119895  -0.3431748
   0.3912131  -0.9342558   0.9521642   1.1724931   0.0790407   0.1919190
   0.0598560   0.1082540  -0.0695628   0.2143597  -1.0855542   0.5440106
   1.3500875   0.0104438   0.0005179   0.3150340  -0.2161010  -0.1254766
  -0.4030895  -0.1387896  -0.6142143   0.2956464   0.4558623   1.4369460
  -0.1478910   0.0305179   0.2320315  -0.2566495   1.5870551  -0.1785714
  -0.0604569  -0.7483146  -0.4103851  -0.2214530   0.2434227   0.0847871
   1.5005921  -0.9199079  -1.1735289   0.9108407   0.7074083   0.9769323
  -0.0806930  -0.0543553  -0.0884653  -0.1946265  -0.9967928  -0.5003384
   0.2545166   0.5178334  -0.1237563  -0.0498508  -0.1301873   0.0854112
  -0.1468362  -2.0332184  -0.6100945   0.3404892   1.3825988   0.8800619
  -0.2636128  -0.2149701   0.0497897   1.2197317   1.1924689  -1.0108274
  -0.2053157  -0.1138540  -0.4068300   0.4287651   0.1159808   0.1828856
   1.1415371   0.1804057   0.9682256  -0.2747658   2.1857493   0.9882122
   0.1267032   0.1548032  -0.1719573  -0.1383055   0.3486211  -0.6449431
  -0.6670335   0.2909690   0.2327731   0.0863973   0.2183372   0.2049139
  -0.6583879   0.6995634   0.2891835   0.2156272   1.0768880  -0.7177063
   0.1948612   0.0189788   0.0993792  -0.7317750   0.6068376   0.6101162
  -1.1860744  -0.0916909   0.3735529   0.0347903   0.0003185   0.1701928
  -0.8241317  -0.5238817  -0.8296850   0.4210675  -0.0438018  -0.2687035
   0.2694573  -0.1228152   0.0397438  -0.8797737  -0.6835938   0.5724639
  -0.9338331   0.2228975   1.7489636  -0.0420567  -0.3494729  -0.1698097
  -0.1955477  -1.0097461   1.0456067  -0.7489388  -0.2514853  -0.3326367
   0.2536967  -0.1993195  -0.0894675  -0.2594661   0.0992121   0.3743479
  -1.4552672   0.6922153   0.0937940   0.2523335  -0.2067033   0.0354080
   0.3192310   0.3181856  -0.7881348  -0.2706444   0.2639530  -0.3456794
  -0.1191662  -0.1919577  -0.2490176   0.2035207  -0.8811291  -0.0860531
   1.6874566  -0.0372177   0.4812789   0.0264114  -0.1265425   0.1792548
   0.1301997   0.3451487  -1.3627214   0.3214344   0.7465215  -0.6598058
   0.1573930   0.1105623  -0.2828673  -0.1444993   0.0046251   0.3593020
  -0.5899689  -0.6990475   1.3132775   0.0124708   0.1385209  -0.0396691
  -0.5527228   1.0427922  -0.0234860   1.4013722   0.7809671  -0.6942106
   0.0056692   0.0661592   0.2769893  -1.0083654  -0.4468299   0.4158560
  -0.5473325   0.8660728   0.5372574   0.5363415  -0.0048886   0.2958219
  -0.6469277  -1.3552614   0.0802396  -0.4959072   0.5343027  -0.5377553
  -0.4336266  -0.0648460  -0.0432885   0.3868068  -0.7917238   0.2523822
   0.0701509   0.9560432  -0.6803777   0.1612021  -0.2880549   0.4122472
  -0.0931514   0.8227206   0.1546907  -0.6236266   0.0487168  -0.5864752
  -0.0783733  -0.0181901  -0.2528570  -1.3682840   1.3998446  -1.1475770
  -0.7205052   0.4964046   0.6143410   0.2451129  -0.3055463  -0.0422352
  -0.5077824  -0.6043581  -0.1759488  -1.2765081   1.8175939  -1.2810223
   0.1251793   0.0044536  -0.0564740  -0.5417094  -0.4982536   0.0948713
   0.9224619   0.0533627   1.3378977  -0.0803599  -0.2194525  -0.1674713
   0.1865915   0.6500398   0.1601198   1.4026754  -1.5278537  -0.6712177
   0.1211792   0.1430794   0.0784910  -0.3876794   0.0515010   0.3073477
   0.3881814  -1.2943976   0.4361303  -0.2207455   0.1349948  -0.0961998
  -0.0209558  -0.5082757  -0.3481237   0.8627319   0.5819263   1.8977786
   0.5472271  -0.3854307   0.2978361   0.9980053  -0.6429863  -0.5817105
   0.2090719  -0.6385386   0.5892503  -0.1137079  -0.3021489   0.0842404
  -0.7984290   0.1345472  -0.3508244  -1.6323121  -0.5550840   1.0585736
   0.0680524  -0.1502545  -0.0307546  -0.2857832  -0.4460794   0.4781909
  -0.2153474   1.5148394  -0.7465746  -0.0284872   0.0211552  -0.2399398
  -0.2846841  -0.1923718  -0.2958466   0.2372074  -0.9608392   0.7734237
   0.0050986  -0.1292451  -0.2136175   0.6507807   0.1292870  -0.2602485
  -0.4142638   0.3505624  -0.2467455  -0.3946173  -0.2284618   0.0619810
  -1.3027929   0.3418908  -0.4628849   0.8693710  -0.1799292  -1.7637051
  -0.1030239   0.3273108  -0.2452246  -0.1516026   0.8211522   0.4689585
  -0.2621886   0.1101545   0.8747301   0.0155296   0.0079595  -0.2141216
   0.1608367   0.6504372  -0.9435844   1.4185163  -1.1789702   0.6709808
  -0.1782083  -0.2815836   0.3976055   0.3638029  -0.0793462  -1.1661240
   1.1381772  -0.4932355   0.2686393  -0.0885061   0.4250616  -0.4114873
   0.3689469   1.3724132  -0.2129099  -0.3041105  -0.7414063   0.0317555
   0.0047804  -0.0723321   0.1949524   0.5522639   0.6530071   0.3879580
   0.4741978  -0.6143140   0.5393782   0.2834795  -0.4526352   0.3177303
   0.5167999   0.0454474  -0.0083641   0.6487216  -0.7043380  -0.3246011
  -0.0025657  -0.0621706  -0.1264788   0.6491185   0.6894844  -1.3711911
   0.2362209   1.0191705   0.1225604   0.1254297  -0.1408758   0.0329980
   0.6018415  -0.0235866  -0.7716362  -0.5254608   0.9484347   0.3511638
   0.2021936   0.1472740  -0.3453330   0.0523972   1.2526966   1.2036532
   0.7639264  -1.3156898   1.2826699   0.0775248   0.3089586  -0.2608798
  -0.4258690  -1.4726233  -0.4382856   0.2076875  -0.3292659   0.1802519
  -0.1812990   0.0814210  -0.0607711   1.5658288   1.7483455   0.1886078
  -0.5186835  -0.4729200  -0.1252404  -0.0900896  -0.1969558   0.2720947
   0.9397920  -0.8507841  -0.8723911   1.7955372   1.1735995  -0.0707609
  -0.3389811  -0.2040727   0.0184940   0.1602215   1.4611160  -0.1782220
   0.1945249   0.4847016   0.3004969   0.0820313   0.1064512  -0.2548288
   1.1845506  -0.3217536   0.3759135   1.2271075  -0.2173921   0.6268651
  -0.2258347   0.2427309  -0.0701790   0.6345774  -0.6042758  -0.3096855
   0.0915892   0.3231776  -1.0236889   0.1685836   0.2063000   0.3348799
  -0.3578364   0.0533586  -0.4600931  -0.2771323   1.0145899   1.6421387
  -0.1973172   0.1984041  -0.2427470   1.4517802  -0.2002229   0.5937012
  -0.1304423   0.3165102   0.3630531  -0.0751253   0.2065950  -0.1693632
  -0.0902553  -0.6376991   0.2600812  -0.7977029   0.0715606  -1.6628482
  -0.2021645  -0.1807378  -0.1694446   0.6216769   0.3398740   0.7498934
   1.4619706   0.1216528  -1.0774848  -0.3582094  -0.1465399  -0.1555981
  -0.3572750  -0.3340279   2.7877464   0.2825298  -0.4126216  -0.0085780
   0.2998245  -0.1389231  -0.0059697   0.1466207  -0.1651660  -1.1259221
   0.1803865  -0.6331099   0.1137175  -0.0855774   0.2391355   0.0395562
   0.6697077   0.3710405  -0.7114746  -1.2857252  -0.2048910   0.3840507
  -0.1862354   0.0817632   0.0127870  -0.4622524   0.8079543  -0.5278289
   0.2854880  -1.6558750  -0.1231992   0.0085624  -0.1418668   0.3003503
   0.0336278  -0.7644563  -0.5456101  -0.5810309  -0.3578107  -0.4655357
   0.0238658   0.1084160   0.3805348  -0.2117656   1.3185428  -0.0016966
   0.8334363  -0.3962512   0.5776907   0.1025137   0.1997675   0.2082042
   0.7041527  -0.4688644  -0.2458294  -1.0063235  -1.5347432  -0.3797137
  -0.1525615   0.0518520   0.2778835  -0.6058050   0.7286887   0.1502833
   0.3908412   0.5404685   0.5836493   0.0404182   0.2533452  -0.1771805
  -0.2155113  -0.0502511   0.1002611   0.1316475   0.0419013   0.6134471
  -0.3105615  -0.0988479   0.1613978  -0.6127274  -0.2597978   1.0026510
  -1.0437295   0.7625983  -0.6026778   0.0188099  -0.1731668   0.2278266
   0.9246637   0.0368673   0.2531118   0.1119217  -0.1582184   0.1415765
   0.1996643   0.2734970  -0.0355111   0.7975153   0.1897100   0.3280618
  -1.2925825   0.4911057   0.8358378   0.0963548  -0.1747563  -0.1460655
   0.5840542  -1.6544800  -0.8285186   0.4238084   0.4402551   0.9242549
  -0.0134861  -0.0288483  -0.2162206   0.8446670  -0.0395359  -1.3312842
  -0.1286164  -1.4091283   0.6150774  -0.1066509  -0.2493116  -0.0488195
   0.9845246   0.3757766  -0.4081093   0.4379361  -0.0813532  -0.2612223
  -0.0027585  -0.0113929   0.3550573   0.8373207  -0.1644262  -0.2062573
   0.9553440  -1.0731550  -0.7623827   0.0974614  -0.2398680   0.0139099
   0.3745227   1.3869882  -1.0970517   0.9180528  -1.5510833  -0.3861949
   0.0538286   0.1310970   0.0518974   0.4225256  -1.6502460  -0.9655249
  -0.5208093  -1.3119099  -0.6347765   0.1837277   0.2023384  -0.2854303
   0.0664055  -1.1560595   0.2239932  -0.7105148  -1.0124137   1.9943700
   0.3331438   0.0742161  -0.1420655  -1.2101634   0.2419841  -0.5913535
   0.8643376  -0.3396954  -0.3196584   0.0131158  -0.1103125  -0.2196776
  -0.2784742  -0.9441020   0.5477723  -0.2689991  -1.1850810  -0.2505888
   0.1623537  -0.1139506   0.2159167  -0.5155410  -0.6088861  -0.7440788
   0.4803197   0.1041360   0.2576070   0.2311797  -0.2624595   0.1473356
   0.5235047  -0.4957300   0.0894697  -0.7175736  -0.4878317   0.9457692
  -0.4182566   0.1516705   0.0897775  -0.1749527   0.0413714   0.4141766
   0.4043053  -0.2152918  -0.5715431  -0.2975295  -0.0931994  -0.2585966
   0.4936850  -1.3181285   1.6833687  -0.2774464   1.4906629  -1.3112988
  -0.0737072  -0.2360444   0.3133966  -0.9898272  -0.3978357   0.4729560
   0.7236474   1.5916508   0.3366130   0.1084206   0.1547356  -0.1147436
   0.1119894  -0.0534733   0.5123504  -1.3118602  -0.1438762  -0.6574731
  -0.1654413  -0.1359718   0.2988887  -0.3980826  -0.1595885   0.5703679
   0.5976338   1.5505670   0.3609516   0.1808909  -0.0473568   0.0682727
   0.8686147  -0.8312905  -1.7001492  -0.5145446  -0.8964807  -0.9448867
   0.2556973   0.1240441  -0.3783949  -0.4346266  -0.5665730   0.9117308
   0.2043769  -0.1573457  -0.2861016  -0.1364528  -0.2041954   0.0808319
   0.0637255  -0.0279411   0.0079013  -0.3927668   0.5176502  -1.4879115
  -0.1294319   0.2304800   0.3311507  -0.1827323  -0.3896730  -0.9250777
   0.2908999   0.8383759  -0.6230707  -0.0293271  -0.0306898   0.1570629
  -1.0011550   1.3098891  -0.2472641  -0.0995019   0.1807015   1.0868846
   0.1731317  -0.2882535   0.0543174   0.7478544   0.6031477   0.4859810
   1.6184902   0.9547194   0.6233628   0.1188934   0.1430524  -0.1496257
  -0.7312111   0.3548170  -0.0054947   0.1070873  -0.1416756  -0.9485574
  -0.0740575   0.0281111  -0.1433333  -0.6176629  -0.5532683   0.5313858
   2.2275469   1.8548832  -1.1884643   0.0348082   0.0145901  -0.3824382
  -0.0105288   0.9886575  -1.3132641   1.1962693   0.4410883   0.6039727
   0.2014209  -0.0934848  -0.0973853   1.9784442   0.1111533   0.7464032
  -0.4727602  -1.6343863  -0.0191050  -0.4055335   0.2298225   0.1957217
  -1.1080544  -0.9509046   0.0976597   0.1028466   0.5609873   1.4579768
   0.0735947   0.0582846  -0.3355195   0.9958571   0.1652737  -0.6032677
  -0.5131343  -0.0796522  -0.2410869   0.0648356   0.3689038  -0.0847924
  -1.0440861  -1.3576906  -1.2162502   0.6698101   0.1419672  -0.6058400
   0.4698493   0.1296629   0.1121170   0.5293296  -1.3536960  -0.2008637
   0.0836082   0.9660127  -1.2524798   0.1236966  -0.4964648   0.3752282
   0.7307707   0.8405002   0.1484705  -1.0731696   0.1870920   0.7048026
  -0.0032368  -0.2600115  -0.3729963  -1.5650432  -0.2594368  -0.0708920
  -0.6168425  -0.5693972  -0.2840850  -0.3539828  -0.0768086   0.1251579
   0.3928822  -1.7506046   0.0840055   1.6854970   0.5866656  -0.4382160
   0.1800260   0.2555805  -0.2457376  -0.9628196  -0.3936255   0.2611275
  -1.1786973   1.2288225  -0.8937165   0.1107124   0.2082827  -0.1880983
   0.3240717   1.3036091   0.0983723   1.7356875  -0.6519185  -0.1201837
  -0.0135273  -0.1936335  -0.0011345   0.6321037   0.1095468  -0.8352581
  -0.2282991   0.5155138  -0.2569512   0.1863235  -0.0286673  -0.1669361
   0.2859749   0.4409657  -0.7872902  -0.3554433   0.1559659   1.4179540
  -0.1232294   0.1383463   0.2682047   0.1138009  -1.7411023   0.1148790
   0.4527217   0.2200592  -0.8366903  -0.0491265   0.0181017   0.1323872
  -0.3939120   1.6070935  -0.3206331  -0.5835642  -0.6004191   1.2591743
  -0.0246078  -0.0394058   0.1039696   0.2678946  -0.0318075   0.1159123
  -0.6048591   0.0066996   0.1269821   0.0057554   0.1025531  -0.0854245
  -0.2870616  -1.1481375   0.0342120  -0.4422435   0.2474700  -1.2455667
   0.0338595  -0.2835052  -0.1573424   0.2731601  -0.0020650  -0.1657273
  -0.2497439   0.8432146   0.1432746   0.1282178  -0.0762582  -0.0905421
  -0.4851547  -0.7967677   0.1441275  -1.3679786  -0.0896476   0.2806185
   0.2481785   0.1995216   0.0802638  -1.3380853  -1.3741646   0.5630882
   0.4242720   1.1281587  -1.3322771   0.1282180  -0.0875964   0.2506417
  -1.7366093   0.3235471   0.1051600   0.9603820  -0.1523795  -0.2893001
   0.2245633  -0.0809017  -0.1829501  -0.4697714   0.4333541  -0.2271173
   0.6947094  -0.2766995   0.2294442   0.0026583   0.0064750  -0.1370737
  -1.1035106  -0.4194545   0.1059725   0.3136925   0.0157022  -0.2604917
  -0.1618677   0.0001210  -0.1293688   0.4777175   0.2375418  -0.3134421
  -1.1393013   0.3964077  -0.5374387   0.1196808   0.3609166   0.1436345
  -0.5758946   1.0893885  -0.0439155  -1.8119329   0.1770021   0.1255904
  -0.1168492   0.0843148  -0.1204851  -1.4673789  -0.0870891   0.2728717
  -0.1612708   0.0887669   0.4830137  -0.0453440  -0.1914179   0.0486938
  -0.2977732  -1.4596715   0.3688251   0.2209111   0.7539443  -1.2960783
  -0.0162351   0.0063032   0.0058118   0.5397167   0.5437630  -2.0324419
  -0.5252427   0.0772302  -0.3641736   0.3714116  -0.1179515  -0.0712074
  -0.0595565  -0.8093869   0.5940807  -0.3462432  -1.3965122  -0.8175287
  -0.4522913  -0.1727026  -0.2700126  -0.3874335   0.0315666  -1.1793804
   0.7019070   1.0582572  -0.3708539   0.1048945   0.0529303  -0.0351915
  -0.9336831  -0.1762897  -1.1401968  -1.1572833   0.4240598  -1.5498937
   0.2035401  -0.0683171  -0.0491722   0.6434271   1.0677379   0.7258848
   0.0830159   1.0661532   0.4245092   0.4175975   0.1759307   0.0243242
   0.0702772   1.1741964   0.2212647   1.5786952  -0.9950156   1.1156176
   0.1002015  -0.2355499  -0.1070689   0.4199795  -2.1200352   0.2409236
  -0.5823323   0.4625611  -0.2820713   0.2192869  -0.2057564  -0.1263304
  -0.1552214  -0.6018381  -1.0798155  -0.8371132   0.8419290   1.1580508
  -0.0282699   0.0743569  -0.2677251  -0.2360242  -1.2054058   0.1728205
  -0.3098901   1.1426165   0.1242165  -0.0783554   0.1758480  -0.0447301
   0.4835608   1.1412946   1.6582038  -1.0897914  -0.4068828  -0.7293962
  -0.1094682   0.1520970   0.1578329  -0.0049194  -0.1175252  -1.4742743
  -0.2251966  -0.6136938   0.1121985  -0.2774409   0.1683427  -0.0864664
   0.2417095   0.3201700  -0.2570216  -1.1058459  -0.6191908   0.5913404
  -0.0520643  -0.0180875  -0.1193340  -0.2329100   1.0821185  -0.8370825
   0.2351971   0.3316616   0.4785135  -0.2316773   0.0991065  -0.1777680
  -0.9431140   0.6710481  -1.4620268  -1.1489871  -0.5183055  -0.7844481
   0.2073658   0.0273353  -0.3607898  -0.2350238   0.0984981   1.5831609
   0.7715533   0.2983927   0.3961701   0.0366923  -0.1734797  -0.2604268
  -0.6097754   0.3562690   0.7459975  -1.0935535  -0.7374009  -0.7446835
  -0.0211411   0.2574171  -0.0176123  -0.8018790  -0.4498948   1.3283929
   0.5860396  -0.8166209  -0.4211523  -0.0977230  -0.1125962   0.2044566
  -1.4614985   0.4492775   0.8513752   0.1126324  -0.4348728   0.6531147
  -0.1080412  -0.0259635   0.1559174  -1.6036395  -0.4501027  -1.5099844
  -0.3445407   0.8337995  -0.3197328   0.0443097   0.0143542  -0.3870276
  -0.6419018  -0.3775193   1.0707247  -1.4285588   0.1734519   0.5452022
  -0.0237727   0.2127059  -0.3146600   1.1831520  -0.2002325   1.0696208
   0.0802691   0.0070015   0.8028013   0.2619519   0.1483999  -0.0970932
  -1.1218395   0.8227271   1.1662712  -0.8077280   0.3550017   1.6432334
   0.3616686   0.0118350   0.0189635   0.2800548  -0.3416557   0.0744171
  -0.8035021   0.8404409  -0.1902878   0.0217743  -0.1347115   0.0578011
   0.3677670  -1.6362714   0.1176972   0.5452664   1.4467013  -0.6210324
  -0.1468578  -0.2145339  -0.0186330   0.4383830  -0.0499178   0.6784097
  -0.0554724   0.7646300  -0.1034433  -0.1259923  -0.0572467  -0.1374255
   0.2176628  -0.7839862   0.6654417  -1.4808171   0.2365623   0.3530526
   0.1337006   0.2929969  -0.3882541   1.0052090  -0.7509335   0.4837505
   0.7726449  -0.6279914   0.3336606   0.1541835  -0.2930366  -0.0086899
  -0.8595979   0.1081149  -0.4568775  -0.0641268   0.0475511  -0.7928296
  -0.2776746   0.0048280   0.1356345  -0.1739972  -0.3871717   0.0355240
  -0.3832184  -0.7190083   0.0535315  -0.1062141   0.0695192  -0.0391125
   2.1129439   1.3038031  -0.0796659   0.4437781   0.7629260   1.3474945
   0.0818799   0.0164680  -0.1463885  -0.5882168   0.7556993  -0.0254758
   0.5924343  -0.9992903   0.7170743  -0.2270488  -0.2488597  -0.1306273
   0.4287492  -0.4766792   0.8887954   0.6772673  -0.2648017   0.5546496
   0.3178532   0.2891127  -0.1957861   0.0964574   0.7389496   0.7967934
  -0.4064257   0.0536412  -0.3850423   0.1397775  -0.0008721  -0.1674973
   0.1521760   0.9285203  -0.4837319  -0.0281682  -0.2731158  -1.6596792
  -0.2377118   0.4556037   0.4227451  -0.1882231  -1.2205127  -0.6123980
  -0.6250931   0.1486482   0.4472928  -0.0773669  -0.0205889   0.1387230
   0.5021601  -0.4050082   0.9684207  -0.3874193  -0.2000500  -0.0098850
   0.0270975   0.0767877  -0.1074064   0.5711288   0.2687869   0.8611018
  -0.2753877  -0.0518018   0.5068495  -0.0507614   0.1463555  -0.3380046
  -0.8186115  -0.3088139   0.7113103   0.6226672   1.0311404   0.6290172
  -0.1495933   0.1752812  -0.1640112   0.6750442   0.2816439   0.6838293
   0.0488304   2.0044131  -0.0241508   0.0444986  -0.3840846   0.0753810
  -0.2177563  -0.9926380   0.1436840  -0.2390454  -0.3769262   0.0254818
   0.0331737  -0.1518227  -0.1794006   0.4743669   0.7932667   0.9651731
  -0.0667012  -0.6552862  -0.6104450  -0.0498492  -0.0017673  -0.0509858
  -1.7262605   0.5848743  -0.6404347  -0.0606327  -0.4835274   0.7171308
   0.0170031   0.0001889  -0.3007896  -0.0221841   0.9774292   0.9782259
  -0.2612199  -1.2103864   0.0795787  -0.1182999  -0.1143748   0.1572956
  -0.9110666  -0.4540869  -0.4304671   1.2903278   0.7336251  -0.6368129
  -0.0725333   0.2580380  -0.1259392  -0.1782721  -0.0650654  -0.4566182
   0.4666799  -0.3654109  -0.0784254  -0.1955226  -0.0506354  -0.2307967
   0.9196815   1.0155437   0.5605576  -0.4263131  -1.2430098  -0.8640785
   0.2034077   0.0675598   0.0133308   1.3425838  -0.3716776  -0.9271957
  -0.0335548   0.1884588   0.0158386   0.0971035  -0.2099748  -0.2373248
  -0.3213778   0.4779783  -0.5393613  -0.5016224   0.1979852   1.9318749
  -0.1428311  -0.0002612  -0.2573250   1.3022571  -1.0478978   0.6739910
   0.8159161   0.1488307  -0.9553111   0.0090748   0.1575680   0.1130254
   0.0034869  -0.5290119   1.0617777  -1.7044270   1.1100041   0.2205675
   0.0886861  -0.1457013  -0.0208013   0.5626049  -0.2854236  -0.4502938
   1.5022587  -0.8575313   0.7864301   0.0651912   0.3117322  -0.0823424
   0.9119546   0.2057613  -0.0698847   1.1524137   0.1500384  -1.0784847
  -0.0198886  -0.0563121   0.1561792   1.2680801  -0.1227812   0.3531063
   0.9732447  -0.2558279  -0.3939209  -0.0861426   0.2190466   0.0775965
   0.3294024   0.2423922   0.3604622   1.4130824  -0.2363974   0.4547169
  -0.1917800   0.0813961  -0.0288760   2.5818033   0.0701255   0.2840271
   0.1591410   0.5356174  -0.2152889  -0.3740069  -0.2445273  -0.1391021
   0.0055864   0.2229335  -0.9859171  -0.6636789  -0.4125504   0.1751734
   0.0831444   0.0295922   0.3366996   0.5022812   0.6025534  -0.3910886
  -0.4491533  -0.3071963  -0.0340505  -0.0549070  -0.0743148   0.1837267
  -0.1460814   0.9306486   0.7282430   0.9159120   0.1676839   0.1017400
  -0.4011291  -0.1264825   0.0880833  -0.5014742   0.4360505   0.1643400
   0.0340697  -0.0675465  -0.0157768   0.1688605  -0.6373363  -0.2435882
  -0.1547953  -0.1091100   0.7012182   0.0850687  -0.2268942  -0.9120751
   0.1946701   0.1276750   0.1117268  -0.6242023  -0.9292629  -0.4921756
  -1.0057036   0.2041645  -0.8189867   0.1965434  -0.1599583   0.0466659
  -0.9107530  -1.0236809   1.6838505  -0.1367231  -0.1523283   0.7681793
  -0.0931373  -0.1434937  -0.4699875  -0.3804463  -1.3736738  -1.2020452
  -0.0073103   0.0973679  -0.6172006   0.1983972   0.2123140  -0.1466064
   0.4618174   1.7070851   0.9930434   0.3473302  -1.1309333   0.3055921
   0.0400869   0.2310682  -0.0122589  -0.4933656   0.5438941   0.9538416
  -1.0589541   0.1316172  -0.5658575  -0.0503233  -0.1066250   0.1354909
   0.3316626   1.0006551   0.2563323  -0.2803732   0.1092768  -1.0776371
  -0.0232680  -0.2396341   0.2815975   0.2121770  -0.4915680  -1.4405411
   0.7767470  -0.9759709   0.1868998  -0.0582355   0.1208558   0.0043434
   2.0234296   0.1464718  -0.5098962   1.1492687   0.7406515  -0.3613689
   0.0666450  -0.1847917   0.3773310  -0.3602248   1.3321604  -0.7342422
   0.1634135   0.1377291  -0.7840068  -0.1881053   0.0872209   0.1182768
  -0.8426473  -0.3812157   0.4671722  -0.8767386   0.8701949   0.3510906
  -0.0513158   0.1372528   0.1401785  -0.0246310  -0.1114441   1.5869030
  -0.8671229  -0.3483794  -1.4603457   0.2013598   0.0420292  -0.1070854
   0.5897107  -0.2216095  -0.2723986  -0.7542556   0.5881369   0.0113000
   0.1286992  -0.2181531  -0.1887864  -0.0419054   0.1510112   0.4957106
  -1.1483505   0.4858811   0.6643174   0.5220078  -0.3707257   0.0021810
  -1.4286501   0.9874778  -0.6964657  -0.1252683   1.9578307   0.9427485
   0.3004417   0.0818566  -0.0492413  -0.6988686  -0.4385505  -1.0047204
   0.6133328   0.9653241  -0.4117647   0.1546415   0.0996973  -0.2123746
  -0.3545159   0.2744363  -0.1166534   1.6659292   1.9165035   0.1337363
   0.0312352  -0.0200839   0.3030440   0.3970214  -0.4086346  -0.5769165
   0.3681044  -0.5981627   0.0932178  -0.1012771   0.0291378   0.0930385
  -0.7588087  -0.8451557  -0.1054176  -0.5242841   1.3517238  -0.1772253
   0.0755860   0.1041509  -0.0024193   1.5842823   0.2332504   0.3025202
  -0.1797267  -0.9191411  -0.9262258  -0.2118981   0.0173524   0.0473178
  -0.5730269   1.4938729  -0.3791311   0.2719348  -0.5076172   0.5663311
  -0.1294761   0.3121426   0.1411323  -0.0928070  -0.3983307   0.0160349
   1.0800967   0.8456118   0.6564765  -0.1692126   0.0773083  -0.0603162
   0.6769011  -0.0274375   1.2338024  -0.7421704  -0.1977584  -1.5629224
   0.2595680   0.2833002  -0.0474660  -0.4256400  -1.3589121   0.4447267
   1.2694781  -0.2777427   0.5278153   0.3610800  -0.0600298   0.0321170
  -0.1034178  -0.2606027  -0.7291980   0.3008395   2.1159036  -0.0329760
  -0.1127446  -0.2903925  -0.2116043  -0.1140592  -0.2323110  -0.3480478
   0.0711115  -0.6960535  -0.6756112   0.2884646   0.0789183  -0.2601483
  -1.4117115   1.5701993   0.7681069  -1.0083485   0.3430933  -1.4603162
   0.1256678  -0.3433068  -0.0842642   0.9991493  -0.4635209  -0.1598639
  -0.3029238   0.1181564   1.7887497  -0.1041140   0.0220046   0.1689416
   0.0977544   0.7500626  -0.3579107  -0.2265190   0.3630801   1.0510168
   0.3438925   0.0809664  -0.0697352  -0.6676979   2.2316866  -0.7787854
  -0.2470429   0.0206510  -0.3948459   0.2671214   0.1109400   0.0242866
  -1.2359720   0.6479182  -1.2987560  -0.8764294  -1.6144713   0.8031453
  -0.1929747  -0.1167932   0.1179140  -0.6324987   0.5055352  -1.9563519
  -1.8792301  -0.3030902  -1.6605721   0.0240518  -0.2556705   0.2577969
  -0.4927865   0.4165485  -0.7361948  -0.6661291  -0.2685349  -0.6380076
  -0.2817360  -0.0306525   0.1606283   0.0825370  -0.1954256  -0.6471138
   0.1781671  -0.0813188  -0.4777634  -0.0246120  -0.2197429  -0.0726721
   0.6539846  -0.2720239  -1.4022112   0.5431054  -0.7199718  -0.1417308
  -0.3302813   0.3407273  -0.1166349   0.8775395   0.6405836   1.0008278
   1.8999263  -1.3983911   0.6039958   0.1910046  -0.0142405   0.1962678
   0.8908184   0.4296187   0.1806225   0.8408088   0.1374571   0.1035808
  -0.0183797  -0.2638264   0.0301150  -0.4281914   0.1110226  -0.0865408
   0.2486378  -0.0738529   0.0306761  -0.2040780  -0.0991310  -0.2326385
  -0.5966231   0.2305015  -0.5145957   2.3373871  -0.0445965   0.6018539
  -0.0031227  -0.0635741  -0.0159276  -0.0972641   0.7691864  -0.9273501
  -0.6615650  -0.2924454   1.2573960  -0.2745670   0.2207129  -0.0605642
  -0.7040935   1.0941632  -0.5630578  -0.5319109   0.7869347  -2.1577158
  -0.2305297   0.3073264  -0.2002554   0.1326685   0.8593587   0.3777257
  -0.0428571  -0.7919208  -0.3620997  -0.2460831  -0.1641853   0.1639165
  -1.0120394   0.1189826  -2.2835586  -0.4203689  -0.7647092   0.3213857
  -0.0777820  -0.3494697   0.1987844  -1.0800735  -0.2938686   0.7476249
  -1.0654289  -0.6614856   0.1938294   0.2838345  -0.0173677   0.0207655
   0.0598012  -0.1903001  -1.6593608   0.1544150  -1.6555488   1.5852553
  -0.3065437   0.0940055   0.3555132  -1.3357309   0.2114836  -1.3188761
  -0.7776612  -0.4675960   0.7353085   0.2358398  -0.1730189  -0.0503375
   0.0549473   1.5765138  -0.1613716  -0.9289076   1.0133704   0.1591729
  -0.0980570   0.0296957   0.1122083   0.3608488  -0.1654025   1.0613306
   0.6083331  -0.4976764   0.1163934  -0.2212856   0.1827036   0.2089019
  -0.5208660  -0.8840483  -0.1217594   0.3244039   1.0514613  -1.2111806
   0.0848305  -0.0932657  -0.1753767  -0.1531144   0.5318791  -0.0599070
  -0.3187730   0.3445513  -0.3192749   0.6424457  -0.1277690  -0.4343070
   0.7027741   0.3062376   0.5707408  -0.9344272  -0.5086484  -1.2682183
   0.1510068   0.0653446   0.2117325   1.0273976   0.6368257   0.1479013
   0.5015785  -0.8979713   0.3981121   0.3876250  -0.4177718  -0.1305355
   0.8094695  -1.1318157   0.4323983   0.2220530   1.1907961   1.0032604
   0.3628789  -0.1729490  -0.2013531  -1.1876116   0.3307341  -0.2872944
   0.2837819   1.0717275  -0.5715429   0.0648282   0.2477708  -0.1332156
   0.3217057  -1.1592325   0.5295606  -1.8129474   0.2221950   0.5312009
  -0.2912038  -0.0470335  -0.1572592  -1.3823298   0.1900108  -1.0830547
  -0.1919084   1.4321642  -0.3016598   0.1610904  -0.0447716  -0.2217574
   1.2829980   1.3190364   0.0917591  -0.5574490  -1.5682251   0.2948693
  -0.0675868   0.2075308  -0.2600232   0.1892516   2.6738124   0.9356636
   0.2030257  -0.5469177  -0.0849520   0.2414266  -0.3137609   0.1242038
  -0.9902625   0.7826570  -0.1498144   0.6543353  -1.6521616  -0.3355617
  -0.1049488   0.0857563  -0.1669967  -0.5425279   1.0062147   1.4661641
   0.4472826  -0.1460987   0.5244719   0.0046717   0.0340834  -0.0059579
   1.6212051  -0.6212378  -1.5246185   0.0382621   0.6420550   1.5084639
   0.0481545  -0.0400545  -0.1494588   1.6108544  -0.8769923  -0.5954385
  -1.0779785  -1.8851918   0.9976007  -0.1673628   0.0469980  -0.0331365
   0.1569962  -0.1840804   0.7337736   0.7722923  -0.1757161  -0.4809948
  -0.0959081   0.5201869   0.4291628   1.5834023  -0.0290595   0.1760996
  -0.4906298   1.4288962  -0.3781189   0.1117242  -0.2639371   0.0166506
  -0.2357922   0.0388711  -1.2241585   1.0760723   1.2084619  -0.2857101
   0.1507094  -0.0042900  -0.0579140   0.8037865  -0.4964752   0.6190111
   1.0590792   1.1024253  -1.1391690  -0.4586177   0.1664586  -0.1160171
   0.1452018   0.4583991   0.9331521  -0.5548910  -0.2121666  -0.2215962
  -0.4301969   0.0203094   0.0866834  -0.0203280  -0.2090939   0.0489541
   1.6099093  -1.4352027   0.7759586  -0.0483957   0.1142352  -0.5050018
  -0.9152139   0.2837475  -0.0914232   0.2480066  -0.3315203   0.3138215
  -0.4347330  -0.1696068   0.3427913   0.6798960  -0.7418869  -0.0838221
   0.7043258   0.6756580   0.1364629  -0.1777831   0.0126706   0.0453071
  -1.3634734  -0.0320586   0.0581850  -0.7085754   0.4459895  -0.6790509
   0.1495666  -0.3045368   0.1124827   0.2542017  -0.3474271   0.8471159
   0.7282984   0.0163254  -0.3251185  -0.1699100  -0.1112970  -0.1730515
  -0.6856858  -1.2268339   0.5258926  -0.9478393  -0.3314419  -0.1886810
   0.2358592   0.2100223  -0.2445205   0.5556363   0.3626736  -0.5731197
  -0.5721266   0.5501103   0.3611273   0.0438095  -0.0737805  -0.1575712
   0.1821748  -0.4958639   0.1171110   1.7144059   0.3624355  -0.3860376
  -0.0193147   0.2359800  -0.3887322   0.8002584   1.3607117   1.1165528
  -1.4426090   0.7750450  -0.7483345   0.0940751  -0.1086300   0.1161566
   0.0393468  -0.8099436  -0.2427785   0.8392180  -0.1878089   0.5887351
  -0.1866998  -0.0081059   0.2271777   0.6750183  -0.0518695  -1.1499717
   0.9193016   0.0721526   0.1174617   0.0068544   0.0410188  -0.1752828
  -0.1520270  -0.4373021   0.2193656  -0.3931635   1.6041443   0.0154248
  -0.0645261  -0.2166013   0.1633781   0.7315003   1.5194069   0.2896623
  -0.1878792  -0.7272955   0.5759647   0.0523610   0.0439836  -0.1250530
   0.3176679  -0.8693056   1.2143072  -1.2865916  -0.7006318  -0.3172613
  -0.0961388  -0.3447354  -0.1341741  -0.5448011   0.8559080  -0.4398713
  -0.0877651   1.0416914   0.6427952  -0.0027176  -0.0466110  -0.0908218
   0.6430472  -0.4085009  -1.0214111   0.5794418  -0.6664120   0.5689318
  -0.4074915  -0.0614821   0.0414748  -0.4111742  -0.4833154  -0.6337740
  -1.4671860  -0.1948562  -0.8135654   0.0799422  -0.0175733  -0.0138711
   0.1008835  -0.5697348  -0.0025648  -1.0140225  -0.1368268  -0.1172824
  -0.1368654  -0.1520923  -0.0539037  -0.2986241  -0.6085742   0.1670322
  -0.7565005  -0.3219478   0.1651700  -0.3116849   0.2054575  -0.2240490
  -0.4908676  -0.0072072  -0.9267479  -0.4381188  -0.7704501   1.7740703
   0.2227831  -0.0716262   0.1902705   0.6652030   0.8676524   0.7819008
   0.5945978  -0.1014078  -1.0875371  -0.1686723   0.1325832   0.1661748
   0.3552577   0.3653286   0.9344752   0.0298871   1.4816676   0.6741358
   0.2156787   0.0739218   0.0872412  -0.2022293   1.2771453  -0.9603028
   0.9135849  -0.2695885  -1.0243810   0.1727652   0.3428734  -0.2401970
   1.0714490  -0.4350763   0.6008201  -0.1050222   0.5199521  -0.4105715
   0.2137368  -0.0053524   0.0693977   0.1104494  -0.4294459   0.1608332
  -0.3082704  -1.0915607  -0.7813395  -0.1976719   0.1863776   0.1521180
  -1.1088638  -0.8256220  -0.8024026  -0.0835282   0.2166952  -1.2502999
  -0.0213232  -0.1296062  -0.0579790   1.0922766  -1.2552537   0.7723745
  -0.5040845  -1.1436085   0.8597468  -0.1354647  -0.3074651  -0.3838446
   0.7786958   1.2049332   0.0627456  -0.9452270   0.4717115   0.5990124
  -0.0253554   0.0351499   0.0958371  -0.9198430  -0.0473739  -1.2564126
   0.3143153   0.1582600  -0.0284195   0.0248752  -0.0753360   0.2432343
  -1.1222082  -0.5621754   0.4124332   1.5168900   0.1269949  -0.3439981
  -0.2622016  -0.1853566   0.2258512  -0.3149929   1.5060786  -0.3420651
  -0.3563957   0.1583488  -1.7146736  -0.1496461  -0.2067798  -0.0667009
  -0.5338314  -0.3492976   0.2128225   0.5225726   0.0197616  -0.2853508
   0.2312267  -0.1036306   0.2393474   0.5194602  -0.2969060   1.5830628
  -1.9854168   0.4602183  -0.1682470  -0.0024836  -0.2290375   0.0189011
  -0.6459873  -1.2361926  -0.2078795   0.2853245   0.3482137   0.7709306
   0.0012480   0.1445344   0.3419940   0.9391160   0.1285295  -0.0137479
  -1.1637847  -0.5638564   1.1492465  -0.3497776   0.0894981   0.0472112
  -0.4343369  -0.1083406  -0.0521935  -1.0961311  -1.2018024   0.2056515
   0.2425118  -0.2330180  -0.0155702  -1.1324157   0.0560647  -0.8804796
  -0.3344719  -0.6945338  -0.9263762  -0.1020509   0.4211582  -0.2921573
  -0.7443306  -1.2686607  -1.5198103  -0.9386707   0.1737109  -0.4433509
   0.2618469   0.1683185   0.0662477   0.0017896  -1.2731745   1.6804992
  -0.4275244   0.9456126  -0.0460065   0.0084261  -0.2556881  -0.0360065
   0.4503154  -0.6901026   0.2915173  -0.8598704  -0.8573300  -1.3440806
   0.1202525  -0.1211633   0.2310427   0.5435364   0.2452027  -1.2355355
   0.2098955  -1.2284253  -0.2709151   0.1272532   0.0917457   0.0773382
  -0.4731346  -1.2298226  -0.1504886  -0.2636756  -0.9447206  -0.4354474
   0.1926411  -0.2801557  -0.1272898   1.2668841   0.2231584  -0.6716177
   0.5897909  -0.0705646   1.0011624  -0.1018881   0.2202009  -0.0452645
  -0.9785063  -0.0659627  -0.6944980   0.1656342  -1.4888541   0.8959090
  -0.0588770  -0.2876159   0.0009340   0.5747829  -1.3383063   0.2646571
  -0.3187453  -0.1481001  -0.1958925   0.1124196  -0.2109047  -0.2045314
   0.6027896   1.2938924   0.3060798  -0.3722436   1.2124131   0.8319409
  -0.0155510   0.1765345  -0.1946776   1.1952031  -0.6148474  -1.2389293
  -0.4475297  -0.3847997   1.3571709   0.1645042  -0.4700260  -0.2321793
  -0.2364818   1.6986392   0.4569158  -0.9501212   0.6901324   0.8633127
   0.1294186  -0.0552758   0.0210324   0.3468739   0.5377078  -0.3311542
   1.2059798   0.5202484  -0.3924100   0.4814782  -0.0015010   0.2315246
  -0.0239624   0.8598640  -0.3826218   0.5170074   0.3731123   0.1294314
   0.0468298  -0.0957873   0.1164982   0.3872985   1.6515797  -0.2998094
   1.2516584  -0.7231557  -0.5261031  -0.2247352  -0.3231920   0.1703997
  -0.9928688   1.6653490  -0.5011113   0.3445365   0.9799725   0.7337997
   0.0159613   0.1193623  -0.1022655   0.2016213  -0.8937162  -0.2082628
   0.0273193   0.4929132  -1.3390335   0.2936757   0.0277465  -0.0970942
  -1.9864670  -0.7126578   1.7563866   2.2033484   0.1973529   0.2399963
  -0.0729206  -0.0984357   0.0044355  -0.8558296   1.5841635  -0.3141124
  -0.7232047   0.5081820   0.5467249   0.0870889   0.1102376   0.0218847
   0.1302691  -0.3641118   1.6947417  -0.2022791  -0.6461391  -0.3007362
  -0.1094306   0.0448369  -0.0511949   0.8654481  -1.4405129   0.5419895
  -0.9258029  -0.1258590  -0.4122480  -0.5106158  -0.0865852  -0.0468318
   1.2538841   0.3072857   0.3059521  -0.5774373  -0.9912323  -1.0224407
   0.2933559   0.0286603  -0.1718047   1.4798130   0.3477187   0.8796862
  -0.2913853   0.0136888  -0.7202946   0.0999259   0.3402092   0.3274341
  -0.5500360   0.3919535   1.2985315   0.3076854  -0.7779246   0.3089502
   0.3401774   0.1001459   0.0667433  -0.8755805   1.3652439   0.5980467
  -0.6779147   0.5216957  -1.0243114   0.0984962   0.0721943   0.1361731
   0.2391147  -0.6902356  -0.0758790  -0.6475030  -0.7243534   0.5681124
   0.0856648   0.4566509   0.0406904   1.7416060  -0.3320840  -0.3158895
   0.9657588  -0.5383356  -0.7387196  -0.1367008  -0.3636574   0.2435350
  -0.1732199   0.7503545  -0.5600623   0.2248160   1.0231637   0.4536685
  -0.2730861  -0.1365878   0.1171471   0.6523719  -0.1348174   0.2854992
   0.0505101  -0.5308556  -0.4137677  -0.1302647   0.1885230   0.0217736
   0.0028094   0.7929829   0.3915659   0.8839954  -0.1531303   1.1959558
  -0.1449637   0.2208762  -0.0855673  -0.5737349   0.3091261  -0.7322696
   0.0287539   0.7572968   0.4148969  -0.1164358  -0.2329654  -0.1837013
   0.6473186  -0.1672521   0.9190838   0.2556800   0.4975074   0.7083335
  -0.2520674   0.0704302  -0.1308377   0.7741944  -1.6083975   0.3138162
   0.4295316  -1.0429214  -0.2541554  -0.0399413   0.2356505   0.0316402
  -0.3124374  -0.4822789   0.0367535  -1.1073945   1.4711446   1.0973301
   0.3453243  -0.0665756  -0.0605507   0.6817339   0.2003357   0.4561237
   0.2796521   0.4312881   0.2701447  -0.2720902   0.4870526  -0.2641668
   1.1104339   0.0795500  -1.5843201   0.3148428  -0.7755602   0.3495103
   0.1540301  -0.1700937   0.2880374   1.2710682  -1.0472842  -0.0020514
  -0.8394705  -1.1134686   0.5279120  -0.1675342  -0.3398381   0.0822275
  -0.2281451   0.4743567   0.5256207  -0.8413123   0.5245113  -0.4310656
  -0.2913540   0.1131114  -0.4648891   0.8706790  -0.9250187   0.7037615
   1.1920192   0.2666717   0.7965894  -0.2381695  -0.4064614  -0.1658646
  -0.7113878   0.5044441  -1.0496782   0.7008517  -0.2552032   0.7903993
   0.1374214  -0.2178965  -0.0854754   0.0601718   0.4357614  -0.1002270
   0.2149898  -0.6170869  -0.3550019   0.2286699   0.2185308  -0.2836799
   0.7708899   0.0137057   0.1235169  -0.1453501  -0.9962181   0.4880860
  -0.0275884  -0.2229765   0.2350035  -0.3721740  -1.2853566  -0.1089675
   0.0132707   0.1362697   0.3760912   0.1519264  -0.0774907  -0.0362567
  -0.2720282   0.6236557  -0.1164944   0.9947441  -0.2320943  -0.7956361
   0.1967461   0.0690902  -0.0942833   1.6254236   0.0340143   0.0243119
   1.1263195  -0.9834248  -0.2658677   0.7275590   0.0831103   0.3221693
  -1.1364866   0.1693460  -1.0103246   0.1514265  -0.2646272   0.4741418
  -0.1961031   0.0875075  -0.3322379  -0.8488939   0.1613884  -0.5560571
  -0.6564229   0.1485398  -0.7147570   0.1743566   0.3546289   0.1957064
  -0.2413116   0.2053174  -0.1348701  -0.2176175   0.8341731   0.6744655
   0.1136358   0.0446985   0.3026839  -0.7890454  -0.4669443  -0.0979858
   0.6327066   0.2710730  -0.3000401   0.4072940  -0.0600409   0.1135307
   1.5055518  -1.2966580   0.9657289  -0.7183095   0.7922425   0.0565471
  -0.1477391  -0.1187971  -0.2928841  -0.1169386  -0.5935242   0.9268654
  -1.1066643   0.2654467   0.0573961   0.0028492  -0.1337880   0.0441782
   1.0198988   0.0209279  -0.3952536   1.0618165   1.2877979   1.0113441
   0.1562088   0.1349611  -0.1827513   1.2885398  -0.2205808  -1.4270517
   0.8482766  -0.6210828   0.0216878  -0.2590955   0.1757663   0.0030099
   1.1653693  -0.0444592   0.6315871   1.4461780   1.4688727   0.8899618
  -0.0446205   0.0327437  -0.1569557   0.6252772  -0.0018094  -0.2228282
   0.3876703   0.6224701   1.6930658  -0.1059879   0.2395547   0.0815374
  -1.5878570  -0.8747546  -1.4923511   0.1680031   0.8916087  -1.0986363
  -0.1242887   0.1024035  -0.1196607   1.2297133   0.5307353   1.6180000
  -0.9222566  -0.1970095   0.6509290   0.3242650  -0.2250566  -0.1702026
   0.2569194   1.1896515   0.8954455  -0.2324405  -0.2462070   0.3507836
  -0.2553974   0.1983768   0.0336460  -0.0141430  -0.4679314  -1.2317239
  -0.9819440  -0.6920053   0.6914369   0.1998447  -0.0123203  -0.1008881
  -0.5968633  -0.0105325  -0.1298877  -0.3976646   1.0088443   0.2886584
  -0.0476049  -0.1246217  -0.0968187  -1.5014374   0.0170558   0.3536741
  -0.2113854  -0.3921985   0.6040273  -0.0171134   0.0950544  -0.0058741
   1.1780963  -0.9055765  -0.2908766  -0.8603578  -0.3542758  -0.2678868
   0.1922944  -0.2644395   0.1800347   0.8030074   0.9095942   0.1910279
  -0.6869298  -0.1455400  -0.5000072   0.1356093   0.0885725   0.0270066
   0.0425940  -0.1815168   1.8518106   0.7904225  -0.8584943  -0.5494248
   0.2653436   0.4182241   0.2715307  -0.2300462   0.2030157   0.8969427
  -0.0243446   0.4857264  -0.1164857   0.0687609   0.1530464  -0.0222611
   1.2828583  -1.0362126  -0.2044193  -1.0181032   0.2268556  -0.7262756
   0.1868164   0.2671109   0.0932382  -0.5820329   0.0432947   1.0947644
  -0.2598082  -0.7005192   0.0298051   0.0544928  -0.1317527  -0.0026373
  -0.3555748  -0.9607818   1.3882647   1.7067339  -0.5717448   0.2151693
  -0.1103503  -0.1197896  -0.1517188  -0.7410227  -0.4424224   1.3344734
  -0.1719258  -0.7036402  -1.4068564  -0.0848219  -0.1884574   0.0373895
   0.9491895   0.2451065  -1.1384856  -0.3908562  -1.8595457  -0.1054147
  -0.0187845   0.0431041  -0.1369113  -0.8419977   0.3592733  -0.0192748
  -1.1228155  -0.1090547   0.6357813  -0.1006676  -0.2253592  -0.2491275
   1.5064111  -0.7138451   0.4039277  -1.6683418  -0.0450585  -1.4058421
   0.1062455  -0.0917499   0.0131639  -0.9752614  -0.4640964  -0.0906687
  -0.1301416   0.8826738  -0.0224184  -0.0801885   0.0108357   0.2309212
  -0.6620532  -0.9418208   0.5353166  -0.5117845  -1.1716232   0.2136880
   0.1815902   0.5064388  -0.1525432  -0.5462071   0.3353227   0.2817059
  -0.6229990  -1.6989800   0.3383222  -0.0445647  -0.0288945   0.1972640
   0.2649902   0.1907283  -0.6623048   0.4503869  -0.0195677   0.3470051
  -0.0090809  -0.1300081  -0.2284601   2.5460804  -0.4071759   0.0472279
   0.6923765   1.6735059  -0.9184363   0.2307975  -0.0151662   0.1472768
   1.0128369   0.2998550  -0.6036968  -0.4668448  -0.4889981   0.1611147
  -0.2254576   0.0360742  -0.1599366  -1.1266247   0.5921904  -0.2474328
   0.6610487  -0.9528434  -0.5652506  -0.0840134  -0.0484516   0.1000021
   1.7604285   1.3866392  -0.4399348   1.3572868   0.5457200   0.5960607
  -0.4097157  -0.0070844   0.0365059  -1.5868027  -0.6564086  -0.6665259
   0.5660405  -0.8531615   0.4296923   0.1909684  -0.2641939   0.2577362
  -1.3499608  -1.8176322   0.3220093   1.1442834  -0.1454968  -0.8214636
   0.1407136  -0.2685182   0.4952306  -0.6018060  -0.2094003  -0.0561725
   0.6796376  -0.6991645   0.0244404  -0.0109132  -0.0625869   0.2532972
  -0.5303687  -1.8822448   0.4548123  -0.8671077   0.0465818  -1.1210154
   0.1454176  -0.1790060   0.0977554   0.7334715   0.0942564   0.5163801
  -0.1182594  -1.0679606   0.6518866  -0.0839287   0.0267312   0.1046069
  -0.4099287  -1.1155846  -0.4967946   0.4061623   0.0630052   0.2530941
  -0.1346835  -0.2653618   0.2423403  -2.7891815  -0.3182113  -0.1907441
  -1.0504245   0.1016199   0.2104051   0.1266026   0.0348905  -0.0078702
   0.6559791  -0.2037875  -1.2521343  -0.8654457   0.5340768  -0.1830189
  -0.1206073  -0.1622881  -0.3464317   0.5983555   0.1048380   0.7600793
  -1.6792607   1.0659964  -0.8967181  -0.1152197  -0.3807454   0.1235499
  -1.1506006  -1.7364810   0.7637811   0.5386203  -0.2721964  -1.0204145
  -0.1468313  -0.2712722  -0.1495521  -0.3229498   0.7371652  -0.5415610
   1.6545808  -0.7791662  -0.7908035   0.1374824   0.0747533  -0.0181218
   0.6641178   0.1862065  -0.0751314   0.6434060   0.2567841  -0.6565819
   0.3195942  -0.1565840  -0.0087861  -0.2112173   1.6976132  -1.0668693
   0.7559360  -0.9672031   0.8999130  -0.0000551  -0.1402189  -0.0025429
   0.1497115   0.1663607   1.1938387  -2.7535799   1.3291340  -0.1681931
   0.3792335   0.1302038   0.0797374  -1.1712183  -0.2470650   0.6715431
   0.4119259  -0.6402759   0.7977204  -0.1821358  -0.0344587  -0.0030234
  -0.0741266  -0.9621282  -0.5441011   0.6203654   0.3720309   0.8239114
   0.0810132   0.1615624  -0.3512398   0.8687332   0.5286103  -0.8756368
   0.2095033  -0.3985105   1.0262184  -0.1098663  -0.2937157   0.0028896
  -0.2838226  -0.6916149   0.1540068  -0.2811551   0.3347468  -0.9447414
   0.2297311   0.1151996  -0.2334666   0.4885697  -0.1919522   0.2343954
   0.0844382  -0.4940284  -0.8679712   0.0647422   0.1016464   0.1175101
  -0.4295141  -1.0133415  -0.0077662  -1.4717948   0.7181012   0.7986329
   0.1500697   0.0078617   0.3541083   0.6306357   0.6446761  -0.1638023
  -1.4282105  -0.8641932  -0.5292144  -0.0136219   0.0232702  -0.3693616
  -0.6454360   0.3173951   0.5142531   0.8784335   0.1731150   0.4323040
   0.1279780  -0.1282923  -0.0060088  -1.6213785   1.5175139  -0.5552540
   0.6519618   0.0815070  -1.0262872  -0.2636301   0.5119705  -0.3181616
   0.8108391   0.1893234  -0.2868845  -0.2998657  -0.4768577   1.2915846
   0.0644244   0.1280433   0.0153566   0.2817579  -1.7631487   1.7002922
   0.0070439  -1.6760656   0.6006775  -0.1890925   0.0202792   0.2638885
  -0.4528844  -0.9312599  -0.0615332   0.8147935   0.3747325  -0.3584539
  -0.2525986  -0.2307786   0.3977332   1.7946597  -1.4650766   0.2941982
   0.0586970  -0.2617715   2.0623918  -0.0965939  -0.0227456  -0.2811531
  -0.6284904   1.3416952   0.2767331   1.3901327  -0.9636953  -0.6777719
   0.0749181  -0.2457135  -0.0645729  -0.2083925   0.9902674   1.1519562
   0.4777296  -0.5305896  -1.5126796   0.1528792   0.2518731  -0.2807962
   0.8149318  -0.3310462   1.5065047   0.2714651   1.0514864  -1.6047227
   0.1462183   0.2120576   0.1266249   0.2249131  -0.0697395  -1.9295119
   0.0385958   0.1741997  -0.0555688   0.0435420   0.2186417  -0.5012199
  -0.2783662  -0.1034514  -0.2409765   0.4457209   0.1664302  -0.3705209
  -0.2489456  -0.2480352  -0.2924086  -0.3960015  -0.1452901   1.0405300
  -0.7511890   0.5594677  -0.6076711   0.2485342   0.0488274  -0.0642334
   1.5500133  -0.0998837  -1.5708443   0.4149340   0.1460882  -1.4171418
   0.1090212   0.1832260  -0.0825538  -0.0405529  -1.0352471   0.8400988
  -0.4699045  -0.4042263  -0.5632051  -0.0515909   0.1586623  -0.2570812
   1.4416287  -1.4438018   0.1340842   0.6898187   0.5138401   0.1368174
   0.1342641  -0.2034103   0.0117453  -0.2415749   1.0746583  -0.7702708
   0.6343470  -0.1399617  -0.6128305   0.0556145  -0.4420448   0.0405728
  -0.3952745   1.5536867  -0.0323492   0.6554547  -2.0566986   1.1746900
  -0.1235998   0.2817346  -0.1444603   0.2815727  -0.5062162   0.3794048
  -0.3106698   0.8688303  -0.3498005   0.0484548  -0.0225460   0.0520549
  -0.4189957   0.7828844  -0.5414467   0.8570466   0.1753798  -0.4841980
   0.1230806  -0.0155139   0.0847175   0.1355218  -0.5412499   0.3735362
   0.3773795  -0.6159153   0.2157191  -0.0053209  -0.2394451  -0.1308582
  -0.6439723  -1.1860522   0.1369292   0.6380304  -1.3248935  -0.7452232
  -0.2238541   0.2258874   0.0521363   0.4678364   0.4255675  -0.0022725
   0.8110735   0.3825454  -1.6380824   0.3736427   0.0443615  -0.0220468
   0.5152720   0.2554350   0.1721307  -1.0245242  -0.3757005   1.3052589
   0.2045631  -0.0043706  -0.0088993   0.6033335  -0.3445797  -0.5832825
  -0.4881542   0.9183335  -0.3970629   0.1385434   0.2317651  -0.1498951
   0.8227868  -0.1355025  -0.7321818  -0.0699195  -0.3059643  -0.2761112
   0.3442974   0.0020973   0.0588654  -0.0812815   0.5222527  -0.9513994
  -1.6476892  -0.2844450  -1.7506720  -0.0509518   0.3547182  -0.1929287
  -0.8799066   1.0274019  -0.3425569  -0.7201406  -0.0544915  -1.1973408
   0.0648985   0.2226156   0.2084082   0.3437064   0.4676817   0.4517460
  -0.8332424   0.0976661  -0.3501623  -0.2575557   0.1569324   0.2929274
   0.2451677  -0.0943905  -0.3649953  -0.3685421   1.6401011   1.6140929
  -0.1495946  -0.2420910   0.0015320  -1.3726983   1.8084947  -0.8780870
   0.0503351  -0.3983905  -0.4527101   0.2357991   0.0734845  -0.0370695
   0.4780731   1.0481254   0.0588102  -0.4180974   0.0963047  -0.7780704
   0.0751699   0.0770512  -0.0843406   0.1370517   1.1481923   0.2773588
  -0.0527564   0.0776228   0.7231985  -0.2084531   0.2291966   0.3239892
   1.1918511  -1.1225684  -0.7160841   0.9949228  -0.3930455   0.1990181
   0.0043280  -0.3760809   0.2705839  -0.0044840   0.4234092   0.2187835
  -1.1341671  -0.1076899  -1.3659483  -0.2757343   0.1028084   0.4412053
   0.5715846  -1.1856514  -1.0411060  -0.3925261   0.0335521  -0.4287363
  -0.2331650  -0.1506063   0.4201083  -0.9178361   0.1719384   1.7085488
   0.3203640   0.6642368  -0.9089595  -0.2149981  -0.1923241  -0.0710846
  -0.9103513  -0.1145762   1.5735126   0.2575495  -0.0327752   1.3680161
   0.1294615   0.1460614   0.0029299  -1.0839401  -0.8081688   1.1410183
   1.4033874   0.5046079  -0.0278491  -0.0320738   0.2168969  -0.0210221
  -0.8759941  -0.1108770  -0.6030414  -1.0104643   0.5971944   0.9558066
   0.2825645   0.1615350  -0.2815055  -0.8613147  -0.6040851  -0.3399888
   0.4808386  -0.1668108  -0.3870232   0.1450804   0.3730715  -0.0435704
  -1.4033116  -0.2152868   1.6570992  -0.2828516  -0.7317240  -1.1139424
   0.3371558  -0.2079694   0.2680670  -0.8134281  -0.8751446   0.9525361
   0.2554269   0.5033755   0.9093520   0.0725516   0.0153073  -0.1577507
   1.3555213   0.2677506   1.1192801   0.3917477  -0.5678362   0.6763450
  -0.1281027   0.4082130  -0.1053710  -0.6254626   1.2123160  -0.2154778
   0.3907472  -0.9423304  -0.3139193  -0.1419450  -0.0255145  -0.1746459
  -0.6329375  -0.5780715   1.1299052  -0.1426042  -0.4029475  -0.2117745
  -0.0578854   0.2602632  -0.2110084  -0.3254905   1.3747538  -1.1145231
   1.0903746  -1.2398094   0.6471085  -0.0894690  -0.2092447  -0.3240776
   0.5490511   0.1217301   2.4279804  -1.0435517  -0.3634994  -0.4948384
   0.0961354   0.1081573   0.0214287   0.9491435   1.6907679  -0.0320347
   1.3436362   0.7297608  -0.4192531   0.1052639   0.1617821  -0.0285484
  -0.2699001  -1.1777718  -0.8267014   0.8933139   1.1650084  -0.1777326
   0.2559471   0.4301785  -0.1317208   0.7801305  -0.0467625   0.7075024
   0.4389250  -0.7342086  -0.1078581   0.0772985   0.1755255  -0.0156215
  -0.1011575  -0.3616462   1.2976990  -0.4545394  -0.1623012   0.2621644
   0.2734073  -0.0315790  -0.1102798   0.4687388  -0.8525744  -0.0244982
  -1.1826646   0.2985383   0.0846849  -0.0257204  -0.0660770   0.2635867
  -1.4020064  -0.0782183   0.0915884   1.0754390   1.0229815   0.2051725
   0.0758827  -0.0072362   0.1080971   1.2054065   0.8920349   0.3388013
  -0.4188351  -0.9962363  -1.3548770   0.1700709  -0.0515977   0.1956452
   1.3521515  -0.6309859   0.5297542   0.0978207  -0.2976570   2.2622957
  -0.1603417   0.2151872  -0.0071865  -0.6655874  -0.4573546   0.6276373
  -0.0669576  -0.7497371  -0.4635119   0.1871464   0.0482549   0.2017796
   0.5994022   0.2404768   0.4028796   0.3343763  -0.5357601  -0.3337170
  -0.3115284   0.4610817  -0.0709997  -0.4197898   0.3821957   1.4079764
  -0.2556589  -0.0664005  -0.0445035   0.1219206   0.0622358   0.1164927
   0.7123529   0.2961105  -0.6184053   0.3327938  -0.6642023   0.0850562
   0.5596223   0.1151023  -0.1721035   0.8977159   0.9690737   1.1413661
  -0.8291723   1.6478630   0.4203762   0.0931207  -0.1156365   0.0143790
  -0.2761050   0.7340106  -0.3497618  -0.8778200  -0.6035520  -0.6607890
  -0.1507735   0.4187346   0.2112894  -0.3144968  -0.1928971  -0.4857216
   0.1782949  -0.3046530   0.8254457   0.1626820  -0.0606765  -0.2802714
  -1.3516498   0.3224877   1.5541376  -0.6566327   1.7577531   0.0515152
   0.1217664  -0.1197080   0.0611105   0.8324913   0.8239292  -0.0326302
  -0.0104730   0.0598229   0.0255242   0.1650651   0.2647622  -0.2483035
  -0.2335817   0.2381580  -0.4325236  -0.0949984   0.7869454  -1.6350087
  -0.0510263  -0.1043385  -0.2961924  -0.7578161   0.6508675   1.0388409
  -1.2312980  -1.0815918  -0.5510323   0.4874642  -0.1109319  -0.2955360
  -1.4939945   0.4531498  -1.2240473  -0.9655009   0.1608806  -0.5342467
  -0.1049944  -0.2221790   0.0437792   0.2249422  -0.0529870   0.1407622
   1.2130867   1.2988461  -0.8782132  -0.0035563   0.0174591  -0.0373346
  -1.1879410   0.9168395  -0.7293068  -0.3756219  -0.3708729   1.1379144
   0.2630212   0.1636145  -0.2130801   0.5249029  -0.4959284  -0.6160141
   0.5065934  -0.1088170   0.0924428   0.0238591  -0.1006948  -0.0526266
  -0.1921372   1.3521118   0.1300969  -1.9695308  -1.2331133  -1.8586203
  -0.0925649  -0.0663622   0.2405752  -1.1861850   1.1492906  -0.5225943
   0.2571229  -0.1196232   0.0310564   0.1649734  -0.1019715   0.1527305
   0.0960280   0.6373786  -0.4023168   0.2831327   0.8476415   0.8654459
   0.0140920  -0.1633854   0.3136655  -0.8219762  -0.8838033   0.2109653
  -1.9584030   0.1366037  -0.3222198   0.0871395  -0.0200447  -0.1670022
   1.0909240  -0.8251051   1.2659646  -0.2683605   1.1995305   0.0981068
   0.0578937   0.2308603   0.2484401  -0.2082086  -0.8678775   0.2177339
   1.7725492  -0.5163017  -1.1455492  -0.2286898   0.2587227   0.0669642
  -1.8925526  -0.8540140   2.3245130   1.1771389   0.0345855  -1.3376168
   0.3073274   0.1827240   0.1522620   0.0432810  -0.9959182  -1.1272191
  -0.0540617   0.8577250   0.3714282  -0.1085760   0.1644391   0.1635740
   0.4605049   0.1708502  -0.3281559   1.1270953   0.6555747   0.8649467
  -0.2007562  -0.1964115  -0.0775118   0.8841049  -0.0536616   0.5742018
   0.1968004  -0.5566610  -0.2092861  -0.0263688   0.0005021   0.0818416
  -0.6021584   1.5928782   0.3281654   0.3651357   0.2616403  -0.5895733
  -0.1220356   0.0509264   0.0055104  -0.4630552  -0.5089490  -0.0819699
   0.7685640   0.1760530  -0.4829236   0.2422926  -0.1017592   0.2815688
   1.1752884  -0.5045614  -0.3344507   0.1632358   0.7884369   0.3185737
   0.1193607  -0.0696241  -0.1055022   0.3529486   0.5120292  -0.5379452
   0.7445603   1.2464637  -1.1166646  -0.3861004   0.0957348   0.4033950
   0.2825324   0.8237520   0.8344187   0.0450317  -0.7158373  -0.7921659
  -0.0371125   0.1807340   0.1680286   1.0636201  -0.9333616   0.7022621
  -0.3445770  -0.5328641  -1.1649096   0.1047912   0.0782849  -0.1715423
   2.6479487  -1.3428384  -0.0093081   0.0847362  -0.6955640  -1.7172050
   0.2765182   0.1343162   0.0393818   1.1152787  -1.5231901   0.4750890
  -0.3620140   0.7446895  -0.4293708  -0.0811154  -0.3589207   0.1438089
  -0.7416895   0.2974579  -0.3083139   0.3396499   0.2480808   0.5670894
  -0.1183671  -0.0757171   0.0988653  -0.3499811  -0.7283499  -0.0803569
  -0.1832241   0.9539242   0.3711877  -0.1164463  -0.2580286   0.3711767
   0.4310948   0.3102968  -0.3992412   0.6924514   2.0091684  -0.3162264
   0.3378157   0.2135595   0.2914872   0.2131114  -1.5503895  -1.3109045
  -0.0924849   0.2038470   0.1745930   0.0480618  -0.3271713  -0.0927099
  -0.3414670   0.1339108  -0.6944932   1.5267613   0.4389307   1.3044404
   0.0070838  -0.2243767   0.4625178   0.4476386   0.8789780  -0.4929494
   0.2167414   0.7614416   0.8435713   0.0326313   0.1417047   0.3414188
  -1.1230012  -1.1696091   1.2070919  -0.1598813  -0.6201769  -0.7418795
   0.2487620   0.1267156  -0.0596989   0.0888434   0.8062253  -0.2953860
  -0.2277775   0.6041557  -0.4720953  -0.2160650  -0.2581815   0.3834400
   1.8373331   0.9731907   0.0728722   0.2847752  -0.5973449   0.6971557
  -0.2980685  -0.1205724   0.2898184  -1.0173583   0.3262707   1.2306211
   0.8897722  -0.7988203   0.3082225   0.3946623   0.1645129  -0.2946382
   0.4698218  -0.1895675  -0.4047171  -0.6158321  -1.2083782   0.3111627
  -0.1416568  -0.0960925   0.5181269  -0.4812379   1.6606233  -1.1745557
  -0.1552146  -0.0427964   0.8005452  -0.2462383   0.0493946  -0.0901548
   0.0673303   0.7597079   0.5091045   0.3832195   0.1120065   0.2841362
   0.2024902   0.1502341  -0.0537640   0.4182543  -0.7713531   0.3782879
   0.3399216  -0.0482209   0.3461740  -0.2370597  -0.1651014   0.3376852
   0.0222620   0.3389570   0.1343228   0.0067210   1.1455480   1.2462630
   0.0527444  -0.1876449   0.1192054   0.3541979   0.3420592  -0.4726800
  -1.6751269  -0.6223420   0.0776841  -0.0272658  -0.2304109  -0.1554481
  -1.7682425   0.4664138  -0.2958601   0.3367478   0.5576946   0.3695700
  -0.4768090   0.0712472   0.0044905   0.6532764  -0.0691540  -1.9140998
  -1.2898257   0.1477717  -0.4939574  -0.0491233  -0.2258977   0.2262078
  -1.1697173  -0.3099896   0.8346841  -2.2561498   1.2332464  -0.2166289
  -0.3312353  -0.0598505   0.2195890  -0.7377766   2.0028560  -0.1492414
   0.3362273  -0.1658266   0.8290334   0.0939455   0.2050792  -0.0147605
  -0.8831834  -0.5060431  -0.6078050  -0.6999743  -0.0201109   0.0497978
  -0.0916672   0.2086953   0.3787919  -0.5814800   0.2747623  -0.4229088
  -0.0036773  -1.5614671   2.4178629  -0.0928617   0.0901200  -0.1941096
  -1.1437466   0.7505448  -0.7443054  -1.2387266  -0.6257183  -0.7099971
  -0.1535867  -0.2220243  -0.1025452   0.1458901   1.5550039  -0.0466964
  -0.0826012   0.4228512  -0.7919670   0.2471643   0.0127234   0.1834564
   0.6356889   1.1164044   0.6888834  -0.0206049   0.1845995   0.2705501
  -0.1163910  -0.1497570   0.0058986  -1.5273790  -0.9283839  -2.1872470
   0.7476438  -0.7037695   1.5190561  -0.1702488   0.1511110  -0.1719033
   0.5243462  -0.9451556  -0.3570666  -0.3668385   0.6093393   0.0503064
   0.1583042  -0.1997188  -0.5573388  -0.7425368   0.2605993   0.3598841
   1.1704202   0.0419501   0.8230895   0.1315157   0.1684114  -0.1197514
  -1.0826573  -0.4087936  -0.5861293   0.2227205  -0.2504756   0.5289367
   0.0505522   0.2141321   0.2425851  -1.1470033  -1.0339425   1.0475390
   2.4610980   1.3636358  -0.3880216   0.1338488  -0.2183640   0.1441756
  -0.6467013   1.4283878  -0.8454149   0.8772806  -0.4937278   1.0863286
  -0.0803004  -0.1913977  -0.0180630  -1.0178543   0.4137461  -1.5628092
   0.0818976  -1.4218595  -0.5393766   0.1231984   0.3636180  -0.1474339
   0.5037925   1.9138041   0.7703222  -0.2601142   0.4611599   0.4828999
   0.0397273   0.0889188  -0.1379004   0.7683585   0.0992990  -0.4234828
   0.3713759  -0.0394765  -0.7507104  -0.1021974   0.5525234   0.0051415
  -0.8886847   0.2239513   0.4629208   1.2505784  -0.8883163  -1.2384247
  -0.0446179   0.4600407   0.3610394  -0.0823077   1.3569933  -0.0714442
   0.2533541  -0.8278787   1.0520605  -0.2772273   0.0595097   0.1173089
   0.6800979  -0.2663488  -2.3524482   0.3176051  -0.1351952  -1.2474425
   0.0033306  -0.0117076  -0.1755489   0.3764062   0.0531445   0.3118943
  -1.7368971   1.4476289   0.5185596   0.1276038  -0.2065369  -0.1429137
  -0.6377469  -0.1548924   0.2445149  -0.1607307  -1.7396674   0.9861618
  -0.1575533  -0.1594160  -0.1538127   0.6880529   0.2051719  -0.2110005
  -1.9784182  -0.3849759   0.3890019   0.2872034   0.1201657  -0.0376732
  -0.1842382  -0.1184177  -0.0653578   0.2553022   0.0701555   0.8832350
  -0.0867789  -0.0226157   0.2378591  -0.2512861  -0.9289612   0.3768034
  -0.4732594  -0.2227198   0.6869078  -0.0062149   0.0143962  -0.1314730
  -0.6080929   0.3403685   0.9135746  -0.0554734  -1.2942570  -1.0255802
   0.2518945  -0.0225820   0.1252444  -2.1247978   0.6157647  -0.7410530
  -0.0297745   0.3081975  -0.6094921  -0.0389302  -0.2705335   0.2317259
   0.4152793  -1.3300701  -0.2199495   0.8049932   0.4956906   1.6266657
   0.1130503   0.1601751  -0.0610978  -0.4397447  -0.1799309   0.8018215
  -0.2832150   0.2759231  -0.3481091   0.0294925  -0.4530342   0.0018165
  -0.4782337   0.4369261  -1.0282685  -1.6324893   0.1565636  -0.8132200
   0.1497599   0.0943867   0.2002154  -1.0585220  -0.7240469  -1.2906724
  -0.2551061   1.0613130   1.1145575   0.2167515   0.1825535  -0.0206758
   1.1830982  -0.1588134   0.4153152  -0.1516847  -0.3928672  -0.5307335
   0.2453624   0.2181254   0.0139479  -0.9865894  -1.0410812   0.2537947
   1.0511639   0.6781640  -2.4054811  -0.1271973   0.1139125   0.0897757
  -0.9926364   0.0231332  -0.0988005   0.4924728  -1.3259840  -1.3002623
   0.0998667  -0.0923739   0.0573490   0.8788924  -0.2287858  -0.3822059
  -0.3507289   0.4851628   1.2547010   0.0117013   0.1729299  -0.2970288
  -0.1601534   2.0346961  -0.2041639  -0.8846104  -0.7836161   0.7514811
   0.1098656   0.0867470   0.0666164  -0.0209727   0.7367707   1.4776925
   0.0674195  -0.3215545  -1.8766991   0.4740063   0.1272544   0.2204051
  -0.2006937  -0.1567293  -1.2302849  -0.4351285   0.1462234  -0.6145256
  -0.0750046   0.0981537   0.0837765  -0.3178795   0.3148516  -1.0061986
  -0.5497311  -1.2604457   0.1687966  -0.2994125   0.2653134  -0.1165542
   1.0067359   1.1384721   0.3642264  -0.8199552   1.9067750  -1.1279873
   0.0585370   0.0809174   0.0406643  -1.1023667   0.4234184   0.7113022
   0.4029170   0.1018788  -0.2489620   0.0230231   0.0864831  -0.0886296
  -0.2051254  -0.0977387  -1.1890650   0.2294948  -0.2668269  -0.2870328
  -0.1248104  -0.1367574   0.2979616  -0.3947176   0.2073277  -1.6093013
  -0.4863074   1.7059627   0.9017509   0.0267015   0.1413495  -0.1196684
   0.2971008   0.6304408  -1.8210778   0.5808915   0.4359066  -0.4358425
  -0.4034043   0.2062667   0.0406308   1.0229453   0.3077734  -0.2554305
   0.3750150  -0.2207864  -0.3173106   0.3032177  -0.1715069   0.2856095
  -0.8008856   1.3377224   0.0010995  -0.3775928  -0.2743159  -0.5155923
  -0.0184068  -0.0595235   0.0250789  -1.2694856  -0.3292260  -0.3188222
   0.0679006  -0.7407137   1.0454627  -0.0188400  -0.1334178  -0.1473332
  -1.1570143   1.7700622  -0.0566680   0.3563429   0.1839093  -0.1217260
   0.2571782  -0.1422798  -0.0982397  -1.2350276  -0.0978285   0.8578730
  -0.7745179  -0.2884109   0.2660907  -0.0050767   0.1946518   0.0570567
   0.3232153   0.2900110   0.7109647  -0.0619760  -0.1836827  -0.5170414
   0.2305114   0.0990075   0.2708036  -0.1938163   0.9400790   0.1606095
  -0.4451845  -0.4966118   0.1347963  -0.0489489  -0.1522507  -0.0301316
   1.1637051   0.6112714  -0.1806218  -0.8975275   0.9152576   0.0269746
   0.3800629   0.0129702   0.0580755   0.0125589  -1.0181667  -1.0467877
   0.2011578   0.4983451   0.2428687  -0.1591909  -0.0936024   0.1116539
  -0.1697674  -0.1122993   0.0675310   0.7770151   1.2301894  -0.2774489
  -0.1652350  -0.1757885   0.0823727   1.1909809  -0.7196143   0.1577125
   0.7250189  -1.3398912   0.8927131   0.0993242  -0.4653027  -0.1357492
   0.3421132   0.9855350   0.0263050   0.5201908  -1.2414433   0.1582684
   0.1827301   0.1981396  -0.1439084  -2.5837567  -0.7521437   0.5845632
   0.0158571  -0.4384181  -0.8725721  -0.1612026   0.0445989   0.2334673
   0.2951898   0.4379275   0.8799093  -1.2788011  -0.9828119   0.4164260
   0.3486101  -0.1881014  -0.0419233  -0.3959107  -0.7752297  -1.5544935
  -0.4571861  -0.5748731  -0.3268283   0.3698443   0.1569853   0.0728309
   0.6280679   0.6437452  -0.7673662  -0.1969465  -0.2099624  -1.3747027
  -0.2503897  -0.3436301  -0.2372364  -0.7948029   0.5684035  -0.6787441
  -0.3666879   1.6575773   0.7014002   0.0717548  -0.1781259  -0.4862673
   1.0707603   0.6548148   0.7511643  -2.0815880  -0.6503761   0.1307202
   0.0720055   0.1664245  -0.0207450  -0.8604098   0.8716522  -1.4895916
  -0.3048994  -0.6631023  -0.5055956  -0.2415318  -0.1396749   0.1199565
  -1.5696059  -1.4320748   1.1301003  -1.7308593  -0.4748098  -0.1708139
  -0.0989412   0.0344680   0.1544768  -0.8874048  -0.2519729   0.5839070
   0.2771508  -0.4385916   0.4743988   0.3262453   0.0001147   0.1600154
  -0.1918381  -0.0640177  -0.4389976   0.5212365  -0.6133162   0.1054144
   0.0561460   0.0900165   0.0375249   1.7414776   0.5052248  -0.1368582
   0.3655765   0.8864026  -0.3644750  -0.1712498  -0.1040685   0.0636562
   0.3097324   0.0770988  -1.0959721  -0.0826647   0.0182521  -0.6024842
   0.2474561   0.1246835  -0.0068148  -1.5025556  -0.3206322   0.8516677
  -0.1080740  -0.6825228  -1.2464448   0.1533841  -0.1877950  -0.1757025
  -0.8371802   0.0300968  -0.5809373  -1.4017115   0.2928014   0.1875721
  -0.1971886  -0.1591761   0.1222630   0.0582858  -0.4543867   0.1362515
  -0.5055716  -0.1685143  -0.1334380  -0.3688034  -0.0648935   0.1614124
  -0.2039793   0.4217937  -0.7206803   0.0414400   0.2354480   0.2617672
   0.5797266   0.2242874  -0.0322464   0.4880979   0.5460459   1.3274373
   0.6567965  -0.3091586   1.3300616  -0.2792165   0.0909618  -0.0043407
   0.1517533   0.8003908  -0.1197196  -0.0377784   1.1365712   0.2034696
  -0.1662411   0.3455041   0.1314888  -0.9568668   0.2378339  -0.3173578
   0.6222486  -1.2890260   0.6880124  -0.0048242   0.1174639   0.0857593
  -0.4291870  -1.2318008   0.5168790   1.0823601  -0.4101683   0.7758089
   0.0569576  -0.3069317   0.1378941   0.7606966  -0.9552968  -0.8268821
  -0.4390277  -1.5163639   0.3073680  -0.2727948   0.1662883   0.0300826
   0.6626554   0.3306143  -0.6359951   0.6875007   1.1955016   0.3470641
   0.1016890   0.1925261  -0.0340168   0.6774930   0.0482090   0.5894809
  -0.0567772  -0.7578288  -0.2549660  -0.0901670  -0.1378697   0.2677600
  -0.5179009  -1.6531279  -0.2055514  -0.2904881  -0.0326525   1.0181836
  -0.0828014   0.0794548   0.0146260   0.6676727  -0.8191090  -0.1326310
  -0.3394391  -0.6324153  -0.1964176  -0.0325112  -0.3186056  -0.0651622
  -0.0072652   0.7946564   1.6065323  -0.7955852   0.2434070   0.2262546
  -0.4416978  -0.0454149   0.2725767  -0.5214747   0.6537784   0.2824593
   0.2001586  -1.6903387   1.5797290  -0.1055637  -0.0897447  -0.5310901
  -1.3957916   0.2316242   1.2565556   0.6143222   0.1466751  -1.0550759
   0.0055115   0.0663275  -0.3760766  -0.9325404   0.9087785   0.2338240
   0.2753237   0.9459197   0.2165016   0.0667311  -0.1061273   0.0810745
  -0.6559185   0.3400998   0.3654666  -1.5275369   1.0247413  -1.3936292
   0.0139634   0.0681426  -0.3782096  -0.6679364   0.7732928  -0.2333788
   0.2641624   0.6701965   1.1859566   0.0683358  -0.2630844  -0.2591528
   0.0252672   0.2313583   1.5975049   0.2872793  -0.5694489  -1.0909656
  -0.1783397  -0.0892699  -0.0223264  -1.4637039  -0.3268549  -0.4988048
   0.6359628  -0.1695340  -0.4471478   0.0165280  -0.2734776   0.0932434
  -0.7471669  -0.2756394  -0.4956859   0.1845042  -1.0818503  -0.0846855
   0.0969400  -0.1080328   0.1942933  -0.5196760  -0.8839000   0.4064175
  -0.0811171   1.0455621  -0.2766194  -0.1089744  -0.0462082   0.2189919
  -0.0099465  -1.0365590   0.2412525  -0.7518997   0.2741375  -0.9965906
  -0.1176232   0.3438615  -0.2016728   0.0865082  -0.1457510   0.8810428
   0.9143170  -0.2575435  -0.1589708  -0.1329523  -0.0336754  -0.0965110
  -0.5620282   2.5143740   0.4738954   1.5566709   0.5679162  -0.3898665
  -0.1069296  -0.1639017   0.0998530  -1.1098076   1.4502891  -0.5187297
   0.1551241   0.9122114   0.5552818   0.1061225  -0.0125968   0.1914501
  -0.3716577  -0.0247743   0.5255057   0.0141962   0.4405125  -0.1379827
   0.0745915   0.0515588   0.1309590   0.0760844  -0.2076204   0.6189514
   0.0596876   1.3509641  -0.2523699  -0.1094764  -0.0398566  -0.1325119
   0.0725471   1.5072500  -1.7499776   0.5385433  -0.5038020   0.5498845
   0.0218481  -0.0678727  -0.1181677   0.2713492  -0.4465318  -0.3410729
  -0.6376104  -0.1846027   0.6438265  -0.1790805   0.0127506  -0.1263648
   0.1984137   0.2795861   0.3626111   0.5281197  -0.6113793  -0.1715738
  -0.0383425   0.1328311  -0.1307441   0.7988117   0.5634639  -0.4832503
   1.4951411   0.6319399   0.8837813  -0.1753673   0.0984489   0.2357036
  -0.3344550   0.3974170   0.8512987   1.3527699   0.6333331  -0.8916841
  -0.0704052  -0.1229827  -0.2830484   0.3624314  -2.0526311  -0.3845995
  -0.6568070   1.2052913   0.2958180  -0.0153737  -0.0351712   0.1125887
   0.8669293  -0.1317260   0.5735984  -1.4479852   0.2870636  -0.3600635
  -0.3957265   0.0448181   0.0028742   0.3017600   0.6105741   1.2611156
   0.2691796   0.9468523   0.4136431  -0.1579198   0.0375485   0.2345773
   1.0390778   0.0254295   0.4083468  -1.2063005  -1.1010495  -0.1690159
   0.0365105   0.0376932  -0.3465985  -0.1539366  -1.2020473  -0.3312835
   0.5273830   0.1473760   0.0504798  -0.0456357   0.0332225   0.0799964
  -0.6463329   1.3478484   0.3988746  -0.0897963  -1.3452026   1.1343278
   0.0908471  -0.2992229  -0.1411032   1.8392426  -0.9915688   0.9645956
  -0.5402965  -1.0859681   1.2794231   0.0558056   0.0623667   0.0621862
  -0.5855100  -0.0257474  -0.6840403   0.7061746  -0.8481178   1.0688418
  -0.1172778  -0.1809912   0.0131599  -0.6305453   1.4354855  -0.0881811
  -0.2930730   1.1134347  -0.4771986  -0.1967664  -0.0036208  -0.2855908
   0.0451390  -0.6012844   0.8762535   0.4890764   2.1661372   0.5137263
  -0.1438232  -0.0103131   0.1839046  -1.3290973   2.3493810  -0.4305238
  -0.0286437   1.1205199  -0.6214101   0.1557810   0.0414608   0.1808227
  -0.6245905   1.8328472   1.0448534   0.6957125  -0.2592498  -0.2223628
   0.0981303   0.0717774   0.2999721  -0.2701463  -0.3012041   0.3050735
   0.4106706   0.6860044   0.1222143   0.1000350   0.0971340   0.2153449
   0.3366185  -0.6667618   0.6481990  -0.3811513  -0.3674940  -0.0638390
  -0.2901526   0.0065157   0.1933850   0.2524477  -0.8894842   0.0169045
   0.9249897   0.4345577   0.6560481   0.0113061   0.1103622  -0.0333446
   1.2527319   0.8395740   0.8391644  -0.9201243   0.3320110  -1.3524488
   0.0246564  -0.1656666  -0.4266607  -0.2860293  -1.3448910   0.2893157
   1.2904052   0.8791415  -0.0502224  -0.1295796   0.0418155   0.3340100
   0.8710172   0.5355629   0.6442992   0.2359779  -1.8657213  -0.0062581
   0.1069826  -0.1216113   0.0203617  -0.0589141  -0.7693788   1.1867325
   0.6484652  -0.7876634  -0.4156680   0.1053569   0.0141496   0.1320685
   0.3378811   0.9572694  -0.6311256   0.1684448  -0.0300651   1.2346593
  -0.1652619  -0.2312787  -0.2378253   0.1836549  -0.4776484   0.1780437
   0.1961407  -0.0815507  -0.6430417   0.1843525   0.1350365  -0.0377764
   0.3153431  -0.8166251  -0.3241988  -0.5041626   1.6239002   1.4423018
  -0.2900077   0.1751293  -0.0243022   1.3897693  -0.2632844   0.2801085
  -0.3641122  -0.6448351  -0.0841453   0.3650526  -0.0470539  -0.1155006
   0.2557274  -0.6583589   0.7551566   0.6228508   1.8934518   0.4762143
  -0.0460304  -0.4012353  -0.2230544   0.6334893  -0.1662817   0.9798658
  -0.9769249   1.0966969   1.1142081   0.2124725   0.2542803   0.1120960
  -1.2443107  -0.6055034   0.0512787   0.2138519   0.2569540  -0.0803518
   0.0253660  -0.0797230  -0.2845535   0.0114988  -0.4611509   1.4221876
  -1.6122566  -1.2679852  -2.1273189   0.0693694   0.0776014  -0.0416675
  -0.9731750  -1.1760565   1.7629241   0.1319620   0.0550007   0.7250638
  -0.0866180  -0.2943175   0.0988558   0.6023117  -0.7610371  -0.1964981
  -0.1693380   0.1219212   0.8604809  -0.2242454   0.0234748  -0.2708240
  -1.8554848  -0.0721899   0.7395473  -0.2952608  -0.1716158   0.0770771
   0.2495831   0.0738071  -0.3586424   0.2182696  -0.5918996   0.0037166
  -0.4629980  -0.6065153   0.5894723   0.0464626   0.2522965  -0.1505662
  -0.7995434  -0.1430825   1.1640226   1.4738685  -0.6942271   0.0186262
   0.1832872  -0.0907384   0.2313606  -2.3814163   0.9358591   1.1172501
  -0.0152182   0.7591658   0.7758202   0.1277155  -0.0099140  -0.0476330
   0.0140249   0.1719322   0.0731868  -0.6789674   0.3026432   0.4456006
  -0.0320451  -0.5321852  -0.1198919   0.2094347  -0.4013560  -0.4116966
   0.9315025   1.2698370  -0.1250572   0.0885888  -0.2590275  -0.3499990
  -1.0414532   0.1647771   0.1113378  -0.7916172   1.2165418   0.4451041
   0.0419979   0.1383829  -0.4029189   0.9353928   0.2728183  -0.9039364
   0.8025347   0.6237554   0.8997551   0.2215775  -0.2569980   0.1233538
   1.6922860   1.4038177  -0.2622764   0.5223007  -1.5063026  -0.0726925
   0.0037049   0.2079888  -0.1262446  -0.0747812   0.5517671   0.1000440
  -0.1035174   0.6804530   0.7465626  -0.0440134   0.2594049   0.0368729
   0.2372104   0.8793535  -0.0619011   0.7482894   0.7202873  -0.6948573
  -0.1337992  -0.1412717  -0.2868619   0.9119989   0.1833503   0.2020370
  -0.1784879   0.3867979   0.3543389  -0.0548141  -0.0379661  -0.3584466
   1.0267957  -0.6538466   0.0368040  -0.0188064   1.0185844  -1.2311120
   0.1372691  -0.1832525   0.0607284  -0.2792687  -0.7900943  -0.9543740
  -0.1663010  -0.5302034   0.2910822  -0.1157478   0.4431264  -0.1010852
   0.2083687  -1.2651914   1.1865654  -1.0270460   0.7358844  -0.7448831
   0.2545029   0.1489625   0.2845980   0.6191949  -0.4185892  -0.0979841
  -0.0744938  -0.9667745   0.6000187   0.0813826  -0.1099107   0.3256089
   0.5035352  -0.6243071   1.0769840  -1.2930912   0.5815280   0.7342960
   0.0854318   0.0849043   0.0834570   0.5024381  -1.3244061  -0.8467844
  -0.5416738  -0.6098198   1.0805238   0.1260572  -0.1376076  -0.3793914
  -0.3274830   0.5125968  -1.6889732  -0.1945165  -0.9784309  -0.0796172
  -0.1997276  -0.0204580   0.1920513   0.7954124   0.2144020   1.0067736
  -0.3500412  -2.3580384  -1.5464832  -0.0367723  -0.0616873   0.1929632
  -0.7298507   1.1424749   0.3055995   0.5381070   0.3608572  -0.2279859
  -0.1338042   0.1734576   0.1023212   0.4076690  -0.4753195  -0.7031743
   0.7531595   0.1041894  -0.6652272  -0.4388804  -0.0403512   0.2516091
   0.0079674  -1.3572395  -0.3270383   0.1261150   0.3118412  -0.5621206
  -0.0428630  -0.0075247  -0.0244108  -0.5716836  -1.8233404  -0.1323264
  -1.2309058  -0.6114757   1.4008968   0.1450511  -0.0750317  -0.3119880
   0.4973231   0.1030751   0.9935747  -0.8764158  -0.2634079  -0.3572922
   0.1957142  -0.0278452  -0.2919614  -1.5681481   0.3321019  -1.2836583
   1.8914944  -0.9878533   0.4654994  -0.2044967   0.3682708   0.0326337
   0.5429199  -1.2005975  -0.6063673   0.1817260  -0.4134614  -0.3877639
  -0.2424237   0.2783565   0.1875250  -0.0617898   0.9840432  -1.3240666
   0.5737858   0.6927851  -0.4619462  -0.0233684  -0.1457554  -0.3130257
   0.8266099   0.0203053   1.0728830  -0.8721085  -0.3900131   0.3507894
   0.0945017   0.2436174  -0.1290163  -0.6413999   1.8326465   0.2793654
   0.3339743  -2.6409230   0.4381399  -0.2515315   0.1348814  -0.2103096
  -0.0991873  -1.2013099   0.9022232   1.0256641  -0.2960194  -0.0944639
   0.0402199   0.0478372  -0.0652112  -1.2349446   1.8161515  -0.1400786
   0.7219461  -0.3858388  -0.3219100   0.1196167  -0.1324457  -0.1841469
  -0.5557529   0.9096690  -0.2951838   0.7083762   0.1032590  -0.0585714
   0.1162854   0.2880019  -0.0401196   0.7151046  -1.3289524  -0.6449980
   0.0886845   3.0186975  -0.4316950  -0.0298524  -0.0388342   0.1105248
  -1.2439650  -0.8543423  -0.8496985  -0.5885879   0.7885757   0.0079090
   0.1526174  -0.1020864   0.0421874   0.0971015   1.2517726  -0.7682782
  -0.2196746   0.3624490  -0.5629288   0.1536225   0.0835867  -0.2608015
   1.0396614   0.9079940   0.5454814   0.0595061  -1.3176823   0.1713430
  -0.0255830  -0.1597559   0.1144456   0.8966718   0.1835835   0.4408830
   0.1528290   0.4215242  -0.7785266  -0.2902385   0.0659965  -0.2029683
  -0.1880011   0.1250277   1.0501992  -0.1876728   0.2832765  -0.2640770
   0.0023770   0.0129739  -0.3252929  -0.4079222   0.6335484  -1.5267696
   0.8831547  -0.7692679   0.1620328   0.0991182   0.1610253  -0.2982230
   0.7888085  -0.4649978   0.4138416   0.3593933  -0.2962893  -0.0634922
   0.0987984   0.2509969  -0.2876728  -0.0400952  -0.4374247  -0.3583546
   1.2761161  -0.3635404  -0.2875512  -0.1108113  -0.0244522  -0.0020464
  -0.0088586   0.1929892  -0.4117614  -0.4091243   0.2000938   0.9728513
   0.1219366  -0.2210141   0.2161476  -1.0045176  -0.9360038   0.8578101
   0.1548436  -0.3475534   0.0437827   0.3344879  -0.1060489  -0.0008089
  -1.4597704   0.2823050   0.1612757   1.2789725  -0.5266353  -0.1365095
  -0.2513072  -0.0799574   0.1769795   0.1408024   0.8597269  -0.5888328
  -0.1852272   0.4706793   0.0322631  -0.1197746  -0.0249454  -0.2183487
  -0.2799714   1.4328904   0.0333744   0.8766567   0.3069437  -0.8071167
   0.2488568  -0.0411195   0.0358164   1.2324100  -0.9192362   0.3735833
  -0.3835201   2.3053465  -1.1065876  -0.1629372   0.1528917   0.0058155
  -1.1201138  -0.5482504   0.5826605   0.7411669  -0.4630904  -0.6853144
   0.4462781  -0.0024655   0.2223650  -1.1766633  -1.4205773   0.3224243
  -0.3162574  -1.0752318  -1.5201734  -0.1711772  -0.1603905   0.0287200
  -0.4387334   0.0436697  -0.2382857   0.3468678  -0.5460042   0.7382600
  -0.0586252   0.0422319  -0.0849485  -2.2208211  -0.5307693  -0.7229838
  -1.0807668  -0.2965055   1.9076198  -0.2389843   0.1522202   0.2127188
  -0.8115636  -1.1817857  -0.0846286   0.0053104  -1.2351779  -0.9766941
  -0.1021091  -0.0501259  -0.0386659   0.0088768   0.1661513   1.0395041
  -0.0023028   0.5537025   0.5243894   0.1601206  -0.2049258   0.2568967
   0.9763768  -0.9379537   0.9613650   0.1757750   0.4674964  -0.3593855
  -0.0241604  -0.1914186   0.0540465   0.4642362  -0.9665498  -0.2914431
  -0.9752025   0.2872861   1.6078234  -0.1929356  -0.6120903  -0.1581158
   1.0658311   1.1551872  -0.9694717   0.1117168  -0.8524555  -0.2616538
   0.2962337  -0.0700368   0.0440699   0.3675850   0.7169954   0.3247195
  -0.1898325   0.3293037   0.8790608   0.0247146  -0.2216442   0.0312883
   1.0638689  -1.3309722   1.6321707   0.3348545   1.1154920   1.4805535
   0.1170053  -0.3107823   0.1538200   1.2714145   0.1325330  -0.0262439
  -0.6487740  -0.1934631  -0.3999476   0.0550343   0.0403134  -0.0560597
   0.8171592   0.0222738  -0.5708163  -0.8042852   0.9904009  -1.0052191
   0.1295666   0.2700388   0.3958739  -0.3116767   1.1230340   0.8223998
  -0.8266576  -0.5790495  -0.0662665  -0.1695126  -0.0629264  -0.0308536
   1.0688397   0.1226832   0.1916391   0.3591909   1.2696948   0.0710039
  -0.1611131  -0.1517538  -0.5090547   0.6512038   0.5059202  -0.1475080
   1.0999910  -0.7631265  -2.3658454   0.2372020   0.2050764  -0.3042180
   0.9872467   0.3902441  -0.8211794   0.3669410  -0.2006778  -0.8022074
  -0.1125403   0.2200451   0.3107907   0.8632634  -1.3144312   0.0198777
   0.7801069   0.5580170   0.2303547   0.0399810   0.1174294   0.2269549
  -0.4056971  -0.0535488  -1.0012679   0.0545609   0.3738270   0.0894453
   0.0106555   0.1672888  -0.2819522   0.4384322  -0.1732072  -0.7763391
   1.3992414   0.3828367   0.3058280   0.0187540  -0.1407261   0.0457060
  -0.4956106  -0.5382242   0.2991163  -0.0144576  -0.1376594  -0.2827894
   0.2792934  -0.1004554  -0.1384668   1.1800905   0.0789883  -0.5206025
   0.3109064  -0.5891756  -0.5043681   0.0028318   0.1079972  -0.0740947
   0.6188987   0.4764214  -0.4192834  -0.9765134  -0.3854000   0.8620037
   0.2913407   0.1751680   0.2938447  -1.0479171  -0.6425704  -0.2726216
   1.2498875   0.9736844   1.1508529  -0.0049068   0.1728448  -0.0882604
  -0.7027132   1.2847356  -0.3476076  -0.4971076   0.3724960  -0.1751167
   0.1151583  -0.1474447   0.2170856   0.7417052  -0.7952800   1.5194609
   0.2912984   0.2950615   0.8257353  -0.2168868  -0.1832829   0.2569065
   0.9551926  -0.0224169  -0.3683032   0.2988539   0.3867263   0.5173426
   0.1976826   0.1051641  -0.0715788   0.2141366   0.5328144   0.8538303
   1.7617809  -0.1623297  -1.5694108  -0.0645851   0.1361032  -0.1207938
   0.4467557  -0.2179946  -0.2722574   0.2523321  -0.6071329  -0.2708073
   0.2900970  -0.0288093  -0.1022368   1.0879955   0.1593722   0.2390664
   0.0603011  -0.1139757  -1.1808972  -0.1109562   0.2030836  -0.1163603
  -0.3759929  -0.0911157  -0.6215626   0.9625965  -0.5956828   1.1640244
  -0.1260365   0.0527601   0.3440545  -0.7855603  -0.2241625   0.6531168
  -0.7387846  -1.0806171  -1.3271542   0.0172212   0.2138890   0.2522873
  -1.3533876  -0.4823015   0.3786476   0.0419549  -0.1110955   1.1562829
   0.0885895  -0.2712158   0.2043673   0.2826447  -0.2242737   0.2057992
   0.2559630  -0.3142999  -0.0712779   0.1892277   0.0398346  -0.2624004
   0.8031834  -2.9696324  -0.6075126   0.4389228  -0.2765031   0.6725766
   0.1099850  -0.0435804  -0.1130027   0.4940509  -0.1103265   0.1343795
   0.7921129   0.4330494   1.6801039   0.0397966  -0.4449936  -0.0286974
  -1.6207433   0.8051853  -2.0799596   0.0331188  -0.9042886   0.8434257
  -0.0878330  -0.2760754   0.1354879  -0.8401865   0.9985906   1.0354602
   1.0752000  -0.4982755   0.0291529  -0.0608851   0.2074656  -0.0356185
   0.2186317  -0.0500161   1.1768290  -0.5200232  -1.5107211  -0.7555764
   0.1746764   0.0049249  -0.0170179  -1.3660096  -0.6402267  -0.7290238
   0.1303968  -1.5133756   0.7580937   0.2549237   0.0765436   0.2040326
  -0.3571282   0.8025259  -1.3346633   0.5551080  -0.0807251   0.9536398
  -0.1547338  -0.0739773  -0.5383783   0.5756382   0.1519307  -0.6708312
   0.6990108   0.6607407  -0.8798193   0.0825111   0.0514285   0.1346920
   0.4312098  -0.4755917   0.1819829   0.5100538   0.3392923  -0.6152472
   0.2786044  -0.2691295   0.0800618  -0.7959616  -0.0334610   0.0886158
   0.4829370  -0.7910361   0.1215902   0.1485591   0.3651248  -0.1951223
  -1.1282833  -0.3258415  -0.9461340   1.1657567   1.4396428   0.9510666
  -0.0949739  -0.1095172  -0.1809091   0.8942344   0.1652404   0.9502141
  -0.3963555   0.9942858   0.4085530  -0.0495689   0.1201807  -0.0060005
   0.2276964   1.1668105   0.0833948  -0.6239885  -0.4238431   1.2101690
   0.1028748  -0.4469976  -0.0795943  -0.0228482   1.1054221  -1.2141306
  -0.2548732  -0.2606440   0.6960230   0.2626094  -0.1784342   0.1340609
  -0.3304532  -0.3449527   0.1842791  -0.1770562   0.6707875  -0.5529568
  -0.3557955  -0.0044027   0.0543422  -0.2493178  -0.8013963  -1.0015481
   0.9226786   0.6315555   0.0810991   0.2368836   0.0697979   0.1186324
  -0.5069822  -0.9313537  -0.1518834  -0.8849566  -2.6103132  -0.5075598
   0.0275583  -0.0400089  -0.2469462   0.1944946   1.4849751   1.0359712
   0.1182381  -0.1816043   0.2474230  -0.0230000  -0.0719701  -0.0264386
  -0.2832283   0.4856425   0.7165702  -0.0463425   0.2592090  -0.9618789
  -0.0612695   0.0650707   0.0059326   1.3308890  -0.3405546   0.5006881
  -0.5898750  -0.0352378  -0.2782897   0.0076359   0.0490116  -0.1703783
   1.1764264   0.7044077  -0.2200616   0.5973184   0.0482256  -2.2513855
  -0.0138267  -0.2553272  -0.3486008   0.9159295  -0.1647121  -1.6253234
   0.6962637   2.3223956  -1.7860880   0.0589674   0.0099719   0.3824580
   1.3280199   0.4414537  -0.2343769   0.3448171   0.0379780   0.0625988
  -0.1851065   0.2870013  -0.0564339  -0.1621393   0.0560507   1.5923923
  -0.2425868  -0.5395898   0.2959298  -0.1868801   0.1629435   0.3242115
  -0.8905134  -0.0895689   0.1958309   0.9951668   1.2344067  -0.7382488
   0.2984140   0.5019153   0.1352640   0.1530045  -0.5312579   0.6593910
  -0.5218542  -0.4121110   0.4086421  -0.0698276  -0.1824742   0.0857733
  -0.2446064   0.2969012  -0.0797121  -0.4374160  -0.2754839  -1.2673500
   0.1965706  -0.2972012  -0.1139799   0.7140272  -0.9879171   1.4092225
   0.1248376  -0.5283580   0.5699880  -0.1758920  -0.2032095  -0.0913136
   0.5774142   0.5023690  -0.2172607  -0.0610895   0.2811626   0.0808342
   0.0306697  -0.1858304  -0.0001357  -1.1289673   0.5744940  -0.3974769
   0.0577543   0.4677751   1.2313377   0.3189841  -0.1536956   0.1276809
  -0.7921761   0.3766110  -0.0798316   1.3921868   0.6993675  -0.3216216
   0.1120766   0.1102620   0.1264616   0.0223547  -0.3613392   0.3174653
  -0.3859011   0.3347122  -0.3815475  -0.1614044  -0.0424319  -0.1307756
  -1.0682979  -0.4395182  -0.3116356  -0.7181812  -1.1700735  -0.3303623
  -0.1412395   0.0444254   0.0057698   1.1340727  -0.9471074  -0.7048460
  -0.8756534  -0.1884731   0.2191290  -0.0282214   0.0066317  -0.1260958
   0.1113920  -0.4674146  -0.1331791  -0.9267285   1.2398380   0.3584243
   0.0786096  -0.0575506  -0.1051124   0.5646042  -0.2946739  -0.4890814
   0.1413473   1.1468060  -0.4590660   0.0955728   0.1241650   0.1124571
   0.4012317   0.1603073   0.2913187  -0.7100348   0.8562447   0.1961002
  -0.1168671   0.2535881   0.0814081  -0.6860525   0.3844059  -1.1507001
   0.8407425  -0.4023800   0.4584050  -0.2621093   0.0097099   0.2113683
   0.3539841  -0.7818220   0.7649735   0.0190107   0.4983518  -0.0902408
  -0.2393400  -0.0171895  -0.2380449   0.8245993  -0.7272670  -0.2417729
   0.8703110   0.5251955  -0.9835815  -0.0473163  -0.0384564   0.2103720
   0.3456736  -0.1568970  -0.4309583   0.4206306  -0.2643895  -0.3723491
  -0.0946523  -0.0118813  -0.0716814   0.3766206   0.7711620   1.8908815
  -1.3672349   0.6959774  -0.7891174  -0.0670852   0.0152096  -0.0574087
  -0.9629062  -1.2302601   0.1171677   0.1759784   1.1944407  -0.9548193
   0.0574936   0.0861346  -0.2092096   0.8850599  -0.3456525   0.2957917
  -0.0227525  -0.9744714   0.3463189   0.2669310  -0.2995337   0.3644960
   0.0640311  -0.2976363   0.3094917  -1.4510164  -1.1360896   0.3607384
  -0.2655986  -0.0490040  -0.1240878  -0.0832089   1.1367902   0.4564692
  -0.3548072  -0.0588542   1.6666677  -0.0632347  -0.3421266   0.1328934
   0.3063866  -0.5420986  -0.5619661   0.6587724  -0.0257780  -0.0540559
  -0.0013270  -0.3595564   0.0644590  -0.0830652   0.9735042  -0.9408469
   0.6136714   1.6421067   0.3819279  -0.0115560  -0.3636456   0.1297335
   0.4074861  -0.1137181  -0.5006545   1.0976728  -0.7602663  -0.0098353
   0.2718149   0.0270774  -0.0658841   0.6717167  -1.2914642  -2.0572376
   0.1699685   0.3888795  -0.8353975  -0.0240084  -0.0782581   0.0926520
   1.0100083  -0.1237809  -0.0612314  -0.5168536   0.6754767   1.2921411
   0.1582451  -0.1872792  -0.1092360   0.5254037   0.8266047  -0.3692155
  -0.7357975  -2.1614568   1.1256453   0.2081195  -0.0442866   0.1577463
   0.0605591  -0.6863627   0.0236563  -0.1013775   0.9170849  -0.3303151
  -0.0272914  -0.3265954   0.0812858   0.2886986  -0.0079270  -0.7755299
  -0.6830510   1.5320821  -0.5535267   0.1172562  -0.3764617   0.1973588
   0.1963980   0.5511501   1.3243748   0.4980165   0.1940339   0.3216943
   0.2682634  -0.2529010   0.1969410  -0.4880531  -0.6932850  -0.4105871
  -0.3521192   0.6597591  -0.6515951   0.0153788   0.1567371  -0.0829607
   1.1629268  -0.5831509  -1.1229006  -1.4627846  -1.2126621  -1.1591613
  -0.2497080  -0.1456870  -0.1746169  -0.5838429   0.3699549  -0.9025847
   0.7119241   0.7036019   0.1862997   0.1623749   0.2846131   0.0534802
  -0.3308997   0.9137398   0.8002525  -1.1410078   1.6808631   1.6485077
   0.0182202   0.0980542  -0.1517808   0.0671962  -0.4163320   0.2631564
  -0.5351021   0.0689088  -0.1094555  -0.3775299   0.2352272   0.1710797
  -0.1149833  -0.9386069  -0.9700255  -0.4700792  -0.6404994   0.1787235
  -0.2576805  -0.2577018  -0.3126362   0.5619669  -0.0467847   1.2625358
   0.0018484   0.9647208  -0.5356983  -0.2156715   0.0407485  -0.0089234
  -0.4685516   0.0203346   0.7900755   0.7606477   0.0904828  -0.7070578
   0.3924612   0.1971506   0.0284321  -0.4594354  -0.2320805   0.6430624
   0.1847294  -1.2345738   0.9342067  -0.1701279   0.5430496  -0.1774488
   0.2168066  -1.0175484   1.2248747  -0.9883249   0.6612726   0.0202339
   0.1023156  -0.0279501   0.0481655  -0.2643835  -0.0830006  -0.9524987
  -0.8692828  -1.1266052   0.9925883  -0.0143645  -0.1167989   0.1722430
  -0.2450084   0.4616653   0.2872881  -1.7238600  -0.4799720   0.0378878
   0.3401676  -0.1474238   0.3939889  -0.4514192  -0.1791747  -0.6960354
   0.8776429   0.1429281  -0.1131202   0.2455564   0.3453916  -0.4726491
  -0.0854996   0.7501801   0.5007019  -0.4060655   0.3864145  -1.0503731
  -0.0705621   0.1879866   0.0627943   0.4144751  -0.8157952   0.1524846
   1.1500250   0.6659348  -0.9087033   0.1489818   0.0364156   0.1171996
   0.3979205  -0.3434227  -1.1601055  -0.7930600  -0.9505189  -1.2041359
  -0.0394813  -0.0893580  -0.0133432   0.7958812  -1.1566061   0.7788982
   1.9574800   0.0195449   1.1142111   0.0472185  -0.0554787   0.0430158
  -1.3655440  -0.3503011  -0.5992851   0.2586820   0.0922027   0.8638317
   0.0392338   0.2944454  -0.0856230  -0.4608872  -0.2512886   0.1917982
   0.1076133  -1.0442916   0.7560247   0.2092810   0.0693682   0.2620511
  -0.8330271   0.8844216   0.7920651  -0.5366272   0.1546884  -1.1565633
  -0.1405533   0.1757052   0.3658563   0.3353750  -1.3422787  -0.0204563
  -0.7547986  -0.3067899   0.3897376   0.1646694   0.0168562  -0.1294681
   0.6606202   0.3130465  -0.3426429  -0.3830822  -0.5947148   0.7213066
  -0.2546036  -0.2160311  -0.1927742   1.2539394  -0.5002226   1.6999701
  -0.8993698   0.6073964  -2.2921798  -0.0518618  -0.2185877  -0.4559609
  -0.0946686  -0.9158085   0.7121840   0.4453569  -0.2766178   0.7220191
   0.2509073   0.0928884  -0.1030866   0.1862558   0.0180487  -0.1194085
   0.6047711  -0.0082253  -1.0614400   0.2818795  -0.0432923  -0.1576579
  -1.3949786   0.2884043  -0.1935574  -0.3413049   0.2563493   1.3046141
   0.0462292  -0.0637205   0.0460180   0.0505091  -0.6781698  -0.3837830
  -0.3385438  -0.0837492  -0.0500830   0.1283653  -0.0024347   0.1966110
   0.0997513   0.9308777  -1.0535753  -0.9241756  -0.2712765  -0.6947942
   0.4206371   0.0605348  -0.1166212   0.4671412  -1.0359207   0.0259725
   0.0028554   0.1201511  -0.1434093  -0.2025218  -0.1204198  -0.2194736
  -0.3060676  -0.2034733   1.2397630   0.0294904   0.7011167   0.1801783
   0.0648341  -0.2307009   0.0264341  -1.0436618   1.6013755  -0.7082075
  -1.3352526  -0.3656702  -0.2135294  -0.1825593   0.1737472  -0.3413014
  -1.0403962   0.0282503  -1.8153925   0.0736149   1.3997279  -0.1014174
  -0.1885319   0.1475652  -0.0743238   1.2231066   0.4351643  -0.3258010
   0.6758620   0.2886058  -0.5360061  -0.1725067  -0.2369160   0.1345371
   1.0722995   0.6277772   0.1193523  -0.8395287  -0.4187312   0.2691271
  -0.4496161   0.0531153   0.0238038   0.0093933   0.8868794   0.3209528
  -1.3407971  -0.1472451   1.3390837  -0.1225426   0.2713557   0.1604243
   0.8897963  -0.0747215   0.1670821   0.7187946   0.2445305   1.6057607
   0.4938447  -0.0907544  -0.2347168   0.1049774  -0.2606261   1.3951365
   0.8418834   0.3066135  -0.1155488   0.0339716   0.1783447  -0.1097678
  -1.1822896   0.4205731  -0.6358992  -0.6822133  -0.1669771   1.0131737
  -0.1498887  -0.0347847   0.0152890  -0.7394511  -1.9818147   0.9375516
  -0.9537417   0.1581655   0.8174564  -0.2663310  -0.0714912   0.1226943
  -0.6089113  -1.0472817  -1.0189564  -0.0873712  -0.2281271   0.8590091
   0.1746335   0.0385019  -0.0688107   0.0312149  -0.8584164   0.2690631
  -1.3687707  -0.0159372   0.2545644   0.0073235  -0.2502460   0.1081610
   0.3233503  -0.8152598  -0.1441354   1.1485555   0.2529542   0.4244766
   0.4049909  -0.1271876  -0.0433071   0.5055073  -0.2095168  -0.3275482
  -0.5856870  -0.0447532  -0.0499492   0.1849106  -0.1847527   0.1198420
   0.2342215  -0.1449963   0.2109202   0.1041490   0.4699346   0.4300434
  -0.0364168   0.1332409   0.0263016   0.3561420  -0.1567961   0.1398400
   0.2516348  -0.3845447  -0.6746237   0.0277343   0.2691932  -0.1960107
   0.3239134   0.5294683   0.0164199  -0.6270531   0.2304408  -0.6491683
   0.1787332  -0.1235077  -0.1424263  -0.7782598  -0.4120272   1.0013977
  -0.0348021  -1.0331464   0.0617255  -0.2555743  -0.2009971   0.4827604
   0.3930040  -0.4687206   0.2801029  -0.5367878   1.0503806   0.1557072
  -0.0790201   0.0443351   0.2757947   1.0722592  -1.4910307   0.8337755
   0.7880278  -0.7570524   0.5491596  -0.1092401  -0.0197044  -0.2132235
   0.8384524  -0.6719584  -0.2105253  -0.0370277  -0.5169108   0.3626563
   0.1272583  -0.2312163  -0.0992778  -0.6296556  -0.7514794  -0.0644166
  -0.5261300  -0.5437956   1.2037325  -0.0344918  -0.0909626   0.0002942
  -1.4457015   0.6890455  -0.3747520  -0.3272708  -0.7340087   0.4120636
  -0.1891961   0.1549926  -0.1756926   0.1402877   0.5015823  -0.7207539
  -0.7942673  -1.7690755   1.5830953  -0.0443682   0.0794157   0.3645873
   0.4160861  -0.4692556   0.1800684   0.4561040   1.4093151   1.1453742
  -0.0611080   0.0416155   0.2399260  -0.3166642   0.1790822  -0.4034236
   0.1171984  -0.3649127   0.1033691  -0.0148496   0.3564513   0.2385884
  -0.1075183  -1.1265787  -0.6727248  -0.0259732   0.7935865   0.7631942
   0.0416038  -0.0081939  -0.1519315   1.0964880  -0.4749146  -0.8921274
   0.9630028   0.0891234  -0.6592386   0.0704789   0.2328468   0.0168961
   0.8801628  -0.6918384  -0.3481350   0.0313135   1.1773043  -0.1477565
   0.0068556  -0.1756617  -0.1333259   0.1165162   0.5916889   0.4751057
  -0.1877254   0.3989396  -0.2539851  -0.2523671  -0.0245577   0.1828064
  -0.1228912   1.0907264  -0.8379727   1.7681286  -0.3460236   0.0222510
   0.0811413   0.0321903   0.0628069  -0.3825453   0.5945247   0.5613825
  -0.6900905   0.2669764  -0.4810516  -0.1951831   0.2677929   0.2933218
   0.6806362  -0.2014085  -0.5002473   1.7575693  -0.7029661   0.7252696
   0.1297882   0.0268162  -0.0520425  -0.5238644  -1.8909858  -0.0754320
   0.5898279  -0.2378244   0.1003151   0.3811984   0.3330944   0.1261319
  -0.0295554   0.6487637  -0.0504257  -1.9131002  -0.2907455   0.5905708
  -0.1012137   0.1051832  -0.2643467  -0.6812097   0.9648173  -0.0543290
   0.3002588  -0.2967714   0.0699219  -0.4487461  -0.1084503   0.2524022
  -0.4826559   0.5572951  -1.0850297  -1.3810239   1.7060040  -1.2329088
   0.0605303  -0.1516971   0.2105893   0.8776901  -0.2021714   1.5702138
   1.0330805  -0.9939556  -1.3488673  -0.6109091  -0.1017306  -0.2298695
  -0.3389658   0.9052929  -0.0794777  -0.9621240  -1.5168478  -0.7809766
   0.0008722   0.3537807   0.2471171  -0.9536279  -1.5475767  -0.6946613
  -1.4499413   0.7994211  -0.2979611   0.0254587   0.1728962   0.4472367
   0.0419820  -0.1422252   0.3925376  -2.3496137   0.7883854   0.5458028
   0.3092024  -0.1079480   0.1588926   0.3499286  -1.0601051   0.0098721
  -0.7809681  -0.9138795  -0.3354972  -0.1034640   0.1657683  -0.2436511
  -0.6829922   0.8528798   1.3340535  -0.5174151  -0.1552574   0.7121342
  -0.2858560  -0.2064468  -0.0750260   0.2484848   0.1851850  -1.9223689
   1.3346924   0.4553919   0.9308977   0.0291380  -0.1230805   0.2111889
   0.4694748  -0.3475601  -0.7262095   1.5916322   0.2334740   0.2238619
  -0.1780197  -0.0961501  -0.1166434   0.0687872   1.0148950   1.2262007
   1.2751178  -0.5123573   0.8317030  -0.0615287   0.0505385  -0.0778290
  -0.8362708  -0.3414655  -0.5663245   0.2327758   0.1779523   0.3409832
   0.1751240   0.0196409  -0.2661613   0.0944604   1.2349511   0.7844989
   0.4479778  -0.5375604   0.6664612  -0.1220788   0.0125076  -0.2991342
   0.3799576   1.4551616   0.3544835  -1.5063024   0.7205003  -0.4329162
   0.0944981  -0.2999005  -0.1885910  -0.9483967  -1.1473982   0.9252681
  -0.8776535  -0.2141359  -0.5025481  -0.0825596   0.0401646  -0.1043338
  -0.5301717   0.9447332   1.0784262  -0.4053353   0.6846739  -0.1050992
   0.4213813  -0.0630645  -0.0328833  -1.5694786   0.4810967   0.6967107
   1.5477221   0.4078255  -0.5210376  -0.3212869   0.0275334  -0.3326172
  -0.3290708   0.2058302  -0.2672961   0.8707919   1.0979947   1.2887868
   0.2146959  -0.3318119   0.1129164  -0.2101275  -0.1274726   0.5199163
  -0.5573600  -1.5079319   0.7953555  -0.0278368  -0.0344469  -0.2306493
   1.1566404   1.1021262  -0.8344477  -0.0028083  -0.4903467  -1.2643349
  -0.0022238  -0.2132709  -0.3254350  -1.0846765   0.1462864  -0.3482106
  -1.0035022   1.2085944  -0.5925868   0.1206131  -0.2112078  -0.2046830
  -0.6172403   0.0168916  -0.4843357  -0.1484410   1.2149097  -0.6682242
  -0.0109013  -0.0153325   0.1288633   0.1909411   0.4364537  -0.1736547
  -0.5385952   0.2706557  -0.6416060  -0.1008837  -0.1003144  -0.4417528
   0.2075237   1.1114285   0.4157944  -0.1872392  -0.4922085  -0.4397307
   0.0856858  -0.1797770   0.1319879  -1.3609524   0.6495209   1.4899765
   1.1514190  -0.7182696  -0.6506801  -0.2845767  -0.1759216  -0.0514750
   0.0872733   0.6790251   0.1032616   0.6195645   0.6732938   0.7676448
  -0.1533738   0.0739104  -0.0853366  -0.3458816   0.3886144   1.1929268
  -0.2957947  -0.7838144  -0.5434933  -0.0825675  -0.0867478  -0.1197862
  -0.3453593   0.3157630  -0.4999801  -0.5205960   0.8686987  -1.2875534
  -0.1448922   0.1169272  -0.1376063   0.7689568   0.2980415  -0.1493078
  -0.7146768   0.3654817  -0.3625929  -0.2280832  -0.4167067  -0.1154042
   0.1717778   0.8389385   0.4199914   1.1649154  -0.3637468   0.3471663
   0.0161239  -0.0585692   0.1663883   0.8720854   0.8949671   0.4099416
   1.5348749  -0.1010101  -0.6760829   0.0316587   0.3665127  -0.1103653
   0.4171139  -0.1376882  -0.5611902  -0.2849735  -0.8574870  -1.3045294
   0.2730013   0.0977744  -0.0461825  -0.6836909   1.2718335   1.4681302
  -0.6088277  -1.2202834  -0.7642853   0.1236167   0.2281750   0.0429060
  -0.6040910  -1.0214716   0.6907930  -0.3767067   0.4501265  -0.2134277
   0.1340770   0.2128569  -0.0422366   1.3077441   0.1203413   0.7104983
   1.0490215  -0.2463926  -1.4007907   0.3674226   0.0560047   0.1571034
   0.9544963  -0.7820688  -0.7301556  -1.6563979  -1.5044597   1.0648212
  -0.1783887  -0.2915139  -0.0532521  -0.6221045  -0.0670931   0.4572566
   0.9095954   0.3213100   0.3682030  -0.0675261  -0.0449996   0.1314659
  -0.0365087  -1.1150347   0.5430285  -0.8390921   0.4314187   0.4713039
   0.1401915  -0.1995539  -0.3008432  -0.6808358  -0.1071884   0.6343914
  -0.6965690   1.5507423   0.6473479   0.1333293   0.3305750   0.0628144
   0.5223799  -0.5686839   1.3360564  -0.6699396  -0.1800444  -0.0402251
   0.0271981   0.0848530  -0.1725486   0.6113582   0.0311967  -1.5786490
  -1.4250883  -0.7170370  -1.3169506  -0.1524152  -0.0305193  -0.1441469
  -0.2139537  -0.8585757  -0.0000880  -0.6408008   0.8315472  -2.0621495
   0.2712334   0.1152377  -0.2006491   0.4180453  -0.4649619  -0.6836907
  -0.1334514   0.4178986  -0.0228815   0.3171421  -0.4008306   0.3848739
   0.0490915  -0.1946965   0.0716770   0.1406396  -0.6323999   0.2141743
   0.0038758  -0.0665463   0.0908190   0.1775076  -0.4291569   0.8049991
   0.0814067   0.4731388   0.0477975  -0.1203355  -0.0444340  -0.1228522
   0.2628849  -0.4097692   0.2402995  -0.6773983  -0.3782367   0.2671312
   0.0151357  -0.0116064  -0.2634919   0.1891699   1.7194026  -0.4112072
   0.1640847   0.4207903  -0.3548526   0.3190958  -0.0938051  -0.1051839
   0.1458499   0.1387977  -0.6320179  -0.1062278   1.2772882   0.2175928
   0.1550390   0.0620818  -0.0346254  -0.4844015   1.0765697   0.6644270
  -1.0440907   2.1644068  -1.2976832   0.1779941  -0.0340133   0.1462307
   1.0225884   0.7402568   0.4855774  -1.3151767   0.4845281  -0.9084418
  -0.0926387  -0.2635934  -0.0760188  -0.7778875  -0.0975894   0.0494794
  -0.6960404   1.0355098   0.4013026   0.0495103  -0.2570625   0.2823078
   0.3624934  -1.1596793  -0.1966361  -0.3811179   0.2138060   0.2405508
   0.0536907  -0.1556014  -0.2861012   0.0471818  -1.2792524  -0.2284096
  -0.1352019   0.9760715   0.2386615  -0.0699596   0.2398690   0.1373473
   1.2854732   0.3936649   1.2923849  -1.1539711  -0.2499759  -1.1486052
   0.1477600   0.0837169  -0.3419422   0.0334065   0.5834237  -0.9864115
  -0.9768958   0.0149894   0.6224287  -0.2249667   0.1126353   0.0811660
   0.0650231   0.0147179   0.6788365  -0.2355944   0.1641228  -1.3476559
   0.0103482  -0.1463699  -0.1591617   0.1113697   0.1059322  -0.3070624
   1.1029282  -0.6580278  -0.8447747  -0.0821515  -0.4376182   0.1365529
  -1.2238436   0.1417959  -0.5386508   0.2708075  -0.1228350  -0.0050267
  -0.0918948  -0.0683192  -0.1617970  -1.0556393  -0.3147778   0.0047365
  -0.8282319   0.9046809  -0.6013844   0.2578292  -0.1521514  -0.1489592
   0.9617461   1.3687211   0.7367523  -0.8279244  -0.6209790  -0.4003032
   0.0621690   0.0708776   0.3738898   0.3472301  -0.6116811   0.8995268
  -2.1007402  -0.2464332  -1.1870749   0.1075971  -0.3033367   0.1255984
   0.0472379   0.8441607   0.5856745   0.7942665   0.0729849  -0.6680231
   0.0776527  -0.0216539   0.0397894  -1.2057171   2.0017052   1.2743415
  -0.0600790  -0.4859201  -0.2496637   0.2274600  -0.1451086  -0.1890154
  -1.4318278   0.2202625   0.5257273   1.5557640  -0.7455117   1.2693443
  -0.4137005   0.2218568   0.2388845   1.3278360   0.0299878   1.3573992
  -0.4053968  -0.5538921   0.5316718  -0.1711376  -0.2093870  -0.4336239
  -0.3998809  -0.3208812  -0.3787981  -2.0187559   0.0997916   0.1524985
   0.0619903   0.0239200  -0.0930922  -2.2169154  -1.5019377   0.7746766
   0.9926858  -0.8865012  -1.2237291   0.1194313   0.1951258   0.2909957
   0.1708532  -0.2309248  -0.6228003  -0.4020829   0.5346813  -0.6813354
   0.6101916  -0.3865423   0.0533775  -0.6603391  -0.7794941   0.3606812
   1.4651281   1.0011067  -0.4361508  -0.1073838  -0.0584245   0.1720938
  -0.6969123  -0.3438120   0.4343879  -0.7891975  -0.9809747   1.6679544
  -0.2983992  -0.2262574   0.2594057   0.0737927   0.3597485   0.0075814
   0.0101173   0.9275280  -0.9359629   0.1402921   0.0182232   0.1096620
   0.2264612  -0.9200541  -0.7625387  -0.0589348   1.1825653   0.3544506
  -0.3403058   0.2037058  -0.4786038   0.9794810  -0.2587673  -0.1994697
   0.1115747  -0.0998049   0.1760596  -0.1016363  -0.1624500  -0.0264025
  -0.9412405   0.6921800  -0.4605739  -0.0394886  -0.4115210  -0.7706000
  -0.0227871   0.3389752   0.4788342   1.5369288  -0.3153713   0.5320596
  -0.3036306  -0.4806490   0.4095528   0.2288022   0.2127706  -0.0755922
   0.4868790   0.5058340  -0.0526788   1.0008752   0.6562395   0.4240804
   0.3797286  -0.0614290   0.0444692  -0.9516591   0.4938605  -0.2497916
   1.1456946  -0.3623225  -1.0822828  -0.2635079   0.0237272   0.2469280
  -0.1878686  -0.9765282   0.1622166   0.4248328   0.1844450  -0.9075820
  -0.0545497  -0.0278505   0.0077355  -0.5934410  -1.2079366  -0.9092249
  -0.6426787  -0.0871717   0.1487989   0.2150859   0.2197530  -0.3978090
   0.0779372   1.5840611  -0.0487679  -0.5861995  -0.2371284  -1.2647867
   0.2358809   0.2558341   0.0683454   0.4347348   1.2568012   1.4645312
  -1.2320383  -0.7257875   0.5327362   0.0423796  -0.0783092   0.2198204
   0.8006178   0.0809265  -0.2717542   1.1447333  -0.4109851   2.0394087
  -0.0554286   0.3417523   0.0813009  -1.0002917  -0.3128621  -1.0504495
   1.2592012  -0.7168006   0.0425626  -0.0564968   0.0245805   0.0095596
   0.5065281   0.1469901  -0.6924911   1.1124148   0.2991984  -0.4861633
  -0.3463380   0.1136373  -0.0335008   0.1993476   0.7846423   0.4794897
   0.3611052  -0.7327656  -0.8649480  -0.0779170  -0.4614807  -0.0537779
   0.2304870   0.0511965   0.8830928   1.5417709   0.0707756   0.9000152
  -0.0168829   0.0885781  -0.0649260  -1.1521993  -0.0142311  -1.0461161
   0.0307655   0.4923876  -0.8039885   0.2093050   0.1155828  -0.2958089
   0.2468242   0.1232046  -0.4172661   0.8133033   0.0892613   0.4278873
   0.0397486   0.2945783   0.0799608   1.6568838  -0.7853785   0.7504883
   0.5282941   0.1593210   0.4822506  -0.0703527   0.0676414  -0.1356168
  -0.0093095  -0.8326974  -0.6451737  -0.3047003   0.4156721   1.8160820
  -0.1338240   0.0650253  -0.1355223  -0.8630514   0.7040545   0.4694317
   0.1034719  -0.3862717   0.5791057   0.0305737  -0.1956808  -0.0026883
  -1.1747255  -0.2230763  -0.3886577   0.8470896   0.7113421   0.8350940
   0.2103956   0.0796637  -0.0498433   0.4810422   0.6273591   0.5688551
   0.3813222  -0.0308418   0.9962342  -0.0376861  -0.0182630   0.2588032
   0.3558164   1.3170682   0.0284482   0.4154140   0.9058411   0.9454126
   0.2196922   0.2537900  -0.0498208   0.0523352  -0.5013369   0.3423394
  -0.2775525   0.8348218   0.6931455  -0.2118101   0.0110230  -0.0067406
  -0.8905696  -0.1229402  -1.1439286   0.2077207   1.0973458   0.0602116
   0.1726382   0.3505336  -0.0405394   1.4509057   1.2830862   0.3402972
  -0.1483063  -1.0737975   2.1480303  -0.1642026   0.0074113  -0.1659001
  -0.9923379   1.4210486  -2.1705883  -1.7942305   1.2178009  -0.8743519
   0.2795832  -0.1221001   0.1203868  -0.9053082  -0.4965277   0.1385918
  -0.4948877   0.5217772   0.1110610  -0.0231345  -0.1476920   0.4232940
  -0.9085959   0.9814771  -0.1290900   0.1876772   0.9485232  -0.5446280
   0.3348702  -0.1070887   0.0549175  -0.5673975   1.0614339  -0.1561688
   0.1367272  -0.7735045   0.0721308   0.1155610  -0.3140765  -0.1881617
   0.6094379  -0.5886850  -0.2091512   0.1502209  -0.4381288  -0.4826387
  -0.0185076   0.3347998  -0.0403142   0.4653735   0.8283869  -0.9074994
   0.4128994   0.7049801   0.3566858   0.1362563   0.1030909   0.2033027
   0.1765280   0.4135279   0.8301080  -0.8491647   0.6185475   0.2585528
   0.0437000  -0.0194526   0.1477623  -1.1903175   0.6721322   0.8616269
   0.0223389   0.7222525   1.1367195   0.1569897   0.0520345  -0.1828695
   0.5095784  -0.6195828   0.9925710  -0.0500201   0.1630858  -0.7154567
   0.2207014  -0.3379091  -0.0835420   0.6377801   0.0115076   0.2105564
   1.1359745  -0.3599021  -0.6024844  -0.1017790   0.2267142  -0.1546363
  -1.2370795  -0.3356045  -0.7563840   0.1631743  -1.2880915   0.6799889
   0.0892805  -0.0990859  -0.3568018  -0.4476784   0.0110939   0.1063309
  -0.4824990  -1.1657556  -0.5487117  -0.1292459   0.0831922   0.0245077
  -0.4472568  -1.0951833   0.6618116   0.4847161   1.1744816   0.4064822
   0.1375323  -0.0806651  -0.0059569   0.8115836  -0.4283929  -0.5331627
  -0.2995081   0.0721234  -0.9292336   0.2305246   0.2852156  -0.1310637
   0.6719440   0.9021962   0.5568601  -0.8569713   1.0112731  -0.9449685
  -0.1544676   0.4498320  -0.0002647  -0.6843247   0.7369345   0.5778512
  -0.2786546  -0.4578755   0.2683413  -0.0113396   0.1972066  -0.2159347
  -0.4708142   0.4744516   0.3197353  -0.3261255   0.7452050   0.5166118
  -0.5615783   0.0958142   0.0811677  -0.1439755   0.0887025  -1.1228446
  -1.6527503   0.6482683  -1.0909859   0.1807837  -0.1188017   0.0930600
   0.2459048  -1.1792783  -0.2131359  -0.7553167   0.7807935  -0.8592313
   0.1481360  -0.3091690  -0.0082964   0.6071219   1.1063766  -0.5628847
   0.1698073   0.4393227  -0.4892475  -0.1963727  -0.0633842  -0.1065933
  -1.6729959  -0.2083878   0.6049808  -0.2731061  -0.6729947  -0.0831881
  -0.1320904  -0.2524108   0.0910764   1.8786924   1.5764560   1.0939903
  -0.6330931   0.1179468  -0.2390717  -0.1877411  -0.0812099   0.1034070
   1.4935993  -0.2504369  -0.3307943   1.0822740  -0.5527607  -0.0070797
  -0.1269028  -0.2666036  -0.0177432  -0.4801545   0.7247367   0.5513952
  -1.2347790  -0.3148637   0.4689666  -0.2261569   0.1609301  -0.1780535
   0.1519366   0.3587853  -0.3105190   0.6465246  -0.4477566  -0.2622897
   0.1657346  -0.0755774  -0.0517484   0.7442839   0.0676010   0.3004924
  -0.1643734   1.1185097  -0.9623590   0.1977038   0.3498781  -0.1600536
   0.0824749   1.4916760   1.2002003  -0.7479600  -1.0529767  -0.5806667
   0.0852426   0.1642336   0.0340252   0.9031117   0.0150663  -0.8825207
  -1.0206983  -1.1058021  -0.9880662  -0.1841178   0.0339359  -0.0111761
  -0.1642541   0.1696450  -0.4767747   1.6054267   0.0065425   0.2526050
   0.0053076   0.1470671  -0.0161767  -1.1425309   0.2998672  -0.2715033
  -0.6244195  -1.2153522   0.2550128   0.2075163  -0.1417860  -0.4025803
   0.3570939  -0.5614524  -0.2831546   0.9126920   0.0504215  -0.1083472
  -0.2735764   0.1931092  -0.1652792   0.3969047   0.5904099   0.4104694
  -0.9624439  -0.5826550   0.6151483  -0.1737306   0.3368455  -0.2686222
   0.3288101   0.8823743  -1.6473571  -0.3489724   0.2262586  -0.5666160
   0.0820327  -0.0055457  -0.1596170   1.3380405  -0.9587730   1.7156864
   0.4620730   0.3286193  -0.3607061  -0.1499183   0.0278703  -0.1558074
  -1.3741838  -0.7045783   1.2278627   0.4395772   0.2405691  -0.3502383
  -0.3361775  -0.2528985  -0.1548039  -0.2419616  -1.1253766  -0.5400496
   0.5673544   1.2072355  -0.9677455   0.0248941   0.1402003   0.1869156
  -0.8878044   1.1045742   0.3755456   1.8071277  -0.3286308  -0.8116311
   0.0556584  -0.2549136  -0.2417944   0.8521771   0.6737377  -0.6582983
   1.3593627   0.3138623   1.2436295  -0.2005142  -0.3482981  -0.0815963
   1.8993039   0.3837497   0.8057061  -0.1220647  -0.3628256  -0.6703953
  -0.1039607   0.0299499   0.0325497   0.3510722   0.1456666   0.1025786
  -0.1064867  -0.3392047   1.6057389  -0.0292818  -0.0544463  -0.0995516
   0.0174978   1.1837012  -0.6293596   0.3482758  -0.5124938   0.0759722
   0.2677716  -0.1216393   0.0669687   0.2617466   0.0868100   0.2105361
  -0.3352628  -0.0611207   0.5753341  -0.1249519  -0.1448091   0.0874185
  -1.3954070   0.4655876  -0.4591348  -0.5094268   1.0758990   0.1847128
  -0.1902477   0.1491635   0.2625511   0.1164243  -1.2916595  -0.3090984
   0.7264520  -0.3125211   0.5144703   0.0516007  -0.0765597  -0.0313451
  -0.7493933   0.6182199  -0.5740868  -0.8578542   0.2850994  -0.5158264
   0.1621254   0.1693042   0.0601154  -0.5443853   1.4349787  -0.5245877
  -0.6591998  -0.5117624  -1.8912277  -0.0303091  -0.0158686  -0.0911767
  -0.2217624  -0.4136308  -0.1479824   0.4395169  -0.9269193  -0.2930313
   0.3332365  -0.1221830   0.0841697   0.5953246  -0.2041792  -0.6706885
   0.4550449   0.0272805   0.0744783   0.0905735  -0.2049965   0.0737652
  -0.4085091  -0.5693533  -0.7005919  -0.0375787   1.9979302  -0.4223499
  -0.1721870  -0.1148897   0.3417175  -0.7112864  -1.7433844   0.2292425
  -0.0332282   0.9761585  -0.7190779   0.0989675   0.1555255   0.1382845
   0.0913214   0.6301598  -0.2059046   1.5781752   0.3117186   1.1503556
  -0.0919627   0.3565560   0.0366614  -0.2204272  -0.7713040   0.8901004
  -1.5020638   0.6512571   0.2004410   0.1161630   0.2171425   0.0715516
  -0.7548129  -0.5018013  -0.6872814  -1.2558563   0.6744595   0.0070063
  -0.1795120  -0.1863118   0.0133423  -0.1016874   0.4237661   0.4939989
  -0.0140499   0.1734287   0.7918484   0.2025728  -0.3034073  -0.0832143
   0.5574341   0.5305954  -0.0356148  -0.3672764  -0.2376233   1.0829818
  -0.0934680   0.2010113   0.0801523   0.9067262   0.3469095   0.9273274
   1.0074235  -1.1170238  -0.2756351  -0.2319147   0.0252394  -0.2019761
   0.2113375  -0.7910920  -0.3172902   0.0905663   0.0413898   0.1265075
   0.2600089   0.1518964   0.0533383   1.5175816   0.5266296  -0.1908551
   0.5092032  -1.7455624   0.7888200  -0.3725785  -0.0602550  -0.0235633
  -1.9684203   1.2265408  -0.9738226   0.5626974  -1.2839645   0.1108192
  -0.1108293  -0.2129005  -0.2202069   0.0652623  -0.7859024   0.3020972
   0.2248487   1.4578522   0.3841566  -0.0779655  -0.1588078   0.1246971
  -0.5133537   0.4393685  -1.8641615   0.0742771   0.2119525  -0.7131549
   0.0425405   0.3114192  -0.2022871   0.7469280  -0.1320529  -0.2102642
   1.4297090   0.9970507  -0.4650800  -0.0234250  -0.4730199  -0.1489563
  -0.1831166   0.0043405   0.6378972   0.6549757   1.2214123  -1.8026934
  -0.1843125  -0.1471704   0.1283591   0.0414196   0.9442217   0.2651985
  -0.0755465  -0.0962411   0.6015517  -0.0696429   0.2595272   0.2544000
   0.5709317   0.5792989   0.0647617   0.2496146   0.3439823   0.3888197
  -0.2826797  -0.0006972  -0.0178316   0.0456635  -0.0184419  -0.2421054
   0.9017233  -0.8027542   0.9007320   0.0358462   0.3965306   0.0170518
   0.6697754  -0.9154854  -1.5667845   0.6928535  -1.2510837   0.7114588
   0.0391914  -0.0083804  -0.0640171  -0.5339628  -0.0421522   1.0210611
   0.4104232  -0.0547170   1.3707446  -0.1748388  -0.0477102  -0.0091965
  -0.3821072  -0.1674550   1.1865143   0.1145500   0.3115273   0.3080058
  -0.0844402  -0.1020703   0.4194016  -0.5026335  -0.5238104  -0.8765548
   0.2087607   0.3306828  -0.6764274   0.1471234  -0.0522424  -0.1110373
   0.5117515   1.4649693  -0.1305479   0.6070465  -0.2281351  -0.1068289
   0.1367931   0.0090178  -0.3206047  -0.6195499   1.5537260  -0.9133942
  -1.2912025   1.4233665   0.0662590   0.1253615   0.2904781  -0.0964714
  -0.8557252  -0.4931658  -0.7421190  -0.4648636   2.3768861  -0.5670816
  -0.5223671  -0.0099300  -0.0653074  -0.7547868  -0.3720942   0.0146568
   0.3062890   0.3723001  -0.2887884  -0.2238065   0.2172965  -0.0979999
  -0.8364385  -0.8036920   0.4028884  -0.7751225  -1.0107205  -0.3296692
  -0.2599253  -0.0375401  -0.2410562  -0.0639778   0.4013340  -0.7706987
  -0.0037077  -1.4610208  -0.2499267  -0.2228366  -0.2542357   0.1354620
   1.0447876   0.8577325  -0.4708124   1.3056694   0.1864434   0.0553760
  -0.1354376  -0.1719825   0.3453146  -2.0456402   0.8442406   0.6320730
  -0.3014366   0.8555052  -0.8514829  -0.1145236   0.2224775  -0.0997322
   1.1058259   1.0547199   0.6003000   0.2115036  -0.0833191  -1.0643219
   0.0238289   0.0487438  -0.2931405  -0.0359632   0.1237511   0.3638889
  -1.4079942  -0.3801875   1.3509332  -0.1088919   0.0052692  -0.1035894
  -0.4708729  -1.0777670   1.1243744  -0.4831050  -0.2582932   0.1093075
   0.0484347   0.1158582  -0.2204907   0.2762570   0.0062282   1.0055532
  -0.3411483  -1.6384943   0.3933149  -0.0951939  -0.2168886   0.1556602
  -0.2675402  -0.0338119  -1.6978273   1.4561332  -0.7859834   0.4308901
   0.2168869  -0.0821834  -0.0491149  -0.5016895   1.5957810   0.1666783
   1.6625694   0.2883683   0.6997575   0.0869316  -0.0797986  -0.1409276
  -0.3450292   0.0682251   1.4485840  -0.1879563  -0.7603019  -0.0991370
   0.1708081  -0.0988284   0.2731096   0.0102658   0.1864169  -1.1524748
  -0.0535126   0.6237327   0.6974373  -0.0062814   0.3812834  -0.3322333
   0.0701208  -0.5345424   0.0330049  -0.2474740   1.1505966   0.7366816
   0.0621406  -0.0905346   0.0925483   0.0891459   0.0045755   1.6825780
   0.3773946   0.0703931   0.1334484   0.3804123   0.2211451  -0.3166516
  -0.7900690  -0.9667135  -0.0430472  -1.2830033  -0.8188422   0.9105411
  -0.0900866  -0.0757091   0.1044067   1.0105286   0.3943421   0.6595705
   0.0240536  -0.5143226   0.4854892  -0.1611662  -0.2088284   0.0655630
   0.0670895  -0.8004208   0.4006765   0.1185642   0.0380593  -2.2674649
   0.2236298  -0.0584719   0.0378901   1.1850474   0.8322213   0.3580445
   0.7632979  -0.1743172  -0.7405488  -0.1576947  -0.0702416  -0.0670201
  -0.9269290  -0.8953191  -0.6427209  -0.0435540  -1.5160009   0.7403856
   0.0467562   0.1543519  -0.1054815  -0.4111383  -0.8828037   0.0852420
  -1.1350368  -0.0182122  -0.2394586   0.1102314  -0.0794418   0.3891547
  -1.2875650  -1.2950296   0.2581479   0.3460749  -0.0704123  -0.8513389
   0.1163596  -0.1187920   0.2144096   0.9309145  -0.1528448  -0.6625143
  -1.0373411   0.6553543  -0.1135174   0.0802579  -0.2466973   0.0354156
  -1.0924640   1.4907137  -0.2117095  -0.1074517   0.8724163  -0.8573130
  -0.0684084  -0.2547072   0.1120729  -0.0973024   1.6577027  -0.8192658
   1.9429926  -0.9031255   0.0623051  -0.1451019  -0.1657503  -0.1097885
   0.7329445   1.4887043   1.2069254  -0.7003199  -0.9618825  -1.0086099
  -0.0095722   0.0396558  -0.0804580  -0.9623152   0.3762155  -0.1416156
  -0.5273172   0.0215070  -0.0171338  -0.1832206  -0.3192210  -0.0656442
   0.5246121   0.3126407   1.0588470  -0.1772716   1.0293534   1.9774026
  -0.0303573   0.1460427  -0.1647515   0.9387460   1.1963197   0.3461103
   0.8074915  -0.6357437   0.1794872  -0.2697326   0.4133030  -0.0915202
  -0.1558653  -0.4207871  -1.4796786  -0.6148773  -0.8366860   1.9457738
  -0.2772082   0.4187602  -0.0398025  -2.2786396   0.5602415  -0.1654587
   0.9835089  -1.3737197   0.9683495  -0.0069429  -0.0645504   0.1520123
   0.9713450  -0.4474125   1.4677294   0.3949937  -0.3784544   0.0047996
  -0.1119916   0.1728204   0.0910942  -0.5442587   0.2095214  -0.3703532
  -1.2257657   0.6772339   0.2248828   0.0860011   0.0637823   0.2282690
   0.3629328  -0.0347318  -0.8075680  -0.8030670   0.4811686   0.3918659
   0.3086660   0.2661303   0.0878855  -1.0718116  -0.2358021   0.8021989
  -0.5990145   1.5425009  -1.0233593  -0.2279577  -0.3511608   0.2111840
  -0.3495286   0.6818230   1.3441547   0.7876940   0.1815596  -1.1744397
  -0.2635018  -0.3993146  -0.3091473  -0.5112950  -1.2715952   0.1947904
   0.2952181   1.0837133  -0.5938522  -0.1604151  -0.3814722   0.4810118
  -1.2827122  -0.3565967  -1.2162406  -1.1201086  -0.1669698   0.0986467
  -0.0061021   0.0999035  -0.1094414   1.1248361  -0.5422024  -0.1286306
  -0.0998234   0.2927869   0.3682778  -0.1124809  -0.0257519  -0.1638606
   0.8477109   0.3484477  -0.2546666   0.2417869  -0.6494634  -0.1392361
   0.3366841  -0.2020210  -0.1195592  -0.2996687  -0.4132808   0.3873778
  -0.3645878   1.1487589  -0.5769134  -0.4688453   0.0495853  -0.0838195
   0.0977406  -1.1284570  -1.6392882   0.5494367   1.2084701  -0.6126164
   0.3463655  -0.4814089   0.0615300   0.5235893   1.3122764   0.4092970
  -0.3982986  -1.3932153   1.1977648  -0.1581439  -0.3246860   0.1410045
  -0.3784508   0.1960330   1.7004420  -0.2704306  -0.7756834   0.2634954
   0.0647636  -0.2694651  -0.2718066  -0.4441936  -0.1373723   0.9323023
  -1.2756829  -0.1654789  -1.8884864   0.1389310   0.0147380   0.0320923
  -0.6423202  -0.0001594  -0.0031804   1.0934024   0.6074229   0.6040495
  -0.0725048  -0.1035075   0.0467583   0.3201375   0.9144889   0.2963810
   0.7602447  -2.4905002  -0.2662810  -0.1868166  -0.3092931  -0.0873643
   1.3407620  -0.4469555   0.6616230   0.1134606   0.2497633  -0.6871106
  -0.2475820  -0.1300768  -0.1782371   0.4127299   0.3136846   1.5886136
  -1.1545632  -0.2325427   0.1453210  -0.0582942   0.0001220   0.1124481
  -2.0294256   0.8985310   1.5636394  -1.5112369  -0.4156984  -0.1371467
  -0.0469649  -0.3172607   0.0016682   0.4626116   1.0808700  -0.4474589
   1.4587822   1.3332201  -0.3043462   0.1660140  -0.0731782   0.1215651
  -0.5983583   0.6117110   0.4012115   0.2323838  -0.1582157   0.3658702
   0.3337253  -0.0855611   0.2891722  -0.3280555  -0.9735554  -1.1025213
   0.1683958   0.9576355   0.8309838  -0.2088816   0.3480047  -0.1239014
   0.4359895   0.1956272  -0.7156122  -0.6289537   0.7103776   0.0714717
   0.0802307  -0.1084507   0.0546171  -0.8510991   1.3414665   2.3468764
   0.5756514  -0.2962144   0.5000205   0.0710329   0.0200512   0.0125172
  -0.1778276   0.0062010   0.3214869   0.3667064   1.1112654   0.9949504
   0.2126547  -0.1489085   0.1309874   0.6915018   0.7307818  -0.9933872
  -0.9621092  -0.8758660  -0.6907702  -0.0110696  -0.0942601  -0.2526434
   0.2089141  -0.1523369  -1.0755541   0.0351008   0.2558758   0.7450395
   0.0162524   0.1979614  -0.4720864  -0.1693542  -0.3964954  -0.3357777
   0.0394138   0.9792136   0.4117674   0.0859058   0.0944292   0.3101888
   0.4765534  -0.7268720   0.1518676  -0.0854961   0.9574823  -0.6375990
  -0.1970073   0.0422467   0.2136745   0.1092458  -0.3783679  -0.7283479
   0.2831265  -0.3416705  -0.3091953  -0.3013667  -0.0384188   0.3512371
  -0.5639140  -0.0062579   0.5904388   0.4124173   0.4757744  -0.3269714
   0.2348291   0.0506471   0.0233656   1.0837208  -0.6226145   0.1382399
  -0.8070239   1.6004478   0.7731532   0.2799529  -0.2285878  -0.1450591
   0.4415131  -0.3304616  -0.4419836   0.4888660  -0.3865566  -0.7144005
  -0.0539675   0.0780460  -0.1656302   0.8509487   1.0866750   0.5710550
  -2.0876398   0.7888164   0.6265357  -0.2306892  -0.1402508   0.1781522
   1.2830529   1.8689898   0.0982701   0.0252446  -1.0215274   1.1963618
   0.1638624  -0.2949261  -0.0482021  -0.7617257   0.0052381   0.5553454
  -0.6586246  -0.2054235  -0.2955422   0.0588385   0.1002075  -0.2775264
   0.7283719  -1.1262741  -0.3901124  -0.4178596   0.0450163  -0.3644298
  -0.1571993  -0.1574203  -0.1158782   1.1811839  -0.9603633  -1.9986537
  -0.9732056  -0.2473645   0.2523799   0.0745118  -0.4092114   0.1023069
   0.7040768   0.5113936  -0.2635930   0.0252897  -0.7204358   0.2146850
   0.0794108   0.0123641  -0.3623630  -0.4242456   1.3645627   0.6400003
   0.0451271  -1.2082262  -0.2337690   0.1021453  -0.0473726   0.2166401
  -0.2021683   0.1435214  -0.8909431   0.2241060  -1.1607417   0.0929462
   0.2037434  -0.1598279  -0.1209546   1.3805608   0.4856637  -0.9472529
  -0.5681472   0.2209509  -1.6299480  -0.3264927  -0.1081989  -0.1493258
   0.2696889  -0.8365250  -0.3018337  -0.4127477   0.3138708   0.8836840
  -0.0554944   0.2837639   0.0396930   0.0785825   1.7110513  -0.7612156
   0.1494007   0.3438528  -0.8186281  -0.0215988  -0.1701175   0.0886257
  -0.1952409   0.4849491   0.1379637  -0.0918010   0.6569739  -0.7066699
   0.0125146  -0.1626112  -0.1397016  -1.0965283  -0.2923675   0.2102195
  -0.5566761   1.4454104  -0.5295296  -0.0844936  -0.1386801  -0.1692947
   0.8838013  -1.2651411   0.1400298   0.3122062   0.6117634  -0.4762024
   0.0926879  -0.3592602  -0.1968371   1.3745447   0.0780692   1.3810518
  -0.6691276  -0.1079908   1.2500786   0.2025997  -0.0106859  -0.0480103
  -0.3680198   0.1472424  -0.1217263  -0.6273268  -0.4702445   0.9593202
   0.2071904   0.0037795   0.1792607  -0.2458893  -0.6370211  -1.0469366
   0.0392221   0.0039273  -0.6476026   0.0985157  -0.0274943  -0.4095259
  -0.5674577  -0.0461457   0.0959345   0.2193699  -0.5424123  -0.2320261
   0.5520329  -0.0472081   0.1438459  -1.1031253   0.4158001  -0.2595506
  -0.0571308  -0.0719647   0.4420922  -0.0645393   0.1518281   0.0220543
   0.0231657  -1.0640231  -0.7885474   1.0678529   0.4098339   0.6498258
   0.0861472  -0.0607934   0.3079667  -0.7081087   0.2177055  -0.4546761
   0.0568451  -0.7513899   1.7609632   0.1770394   0.1067439   0.0153112
  -0.5360826   0.5815459   0.5289143  -0.2739565  -0.0336305  -0.1660081
   0.0072115   0.0909648  -0.2845565  -0.2266263  -1.0631644  -0.2390701
  -1.3967365  -1.2912029  -1.1519121  -0.0161727   0.1281562   0.2573141
  -0.2693636   0.2356437   0.6524463  -0.0580597   0.5279124  -0.6940382
   0.2973867   0.4408115  -0.3103461  -0.1436356  -0.7223539  -0.0641269
  -1.0119331   0.0499966   1.7361943   0.0351353  -0.0573957   0.1217239
  -1.4891279   0.0195383   0.0541817  -1.5153817  -0.6293440  -0.3104556
   0.1393623  -0.2249650  -0.0865263  -0.1763588  -0.9050657  -0.8195295
  -0.7668661   0.7085850  -1.0969965   0.0200002   0.0135011  -0.1814193
  -0.4516569  -0.7664519   0.7341882  -1.8187248  -0.4407905  -0.2653019
   0.3378265  -0.1782574   0.0156218   0.5165766  -0.1789674   0.7032560
   0.6836423  -1.3320332  -1.2728188   0.0084347   0.0692270   0.2449316
  -2.2578220  -0.4785329   0.3644741  -1.8790635  -0.6142524   0.8656483
   0.1504233  -0.0949954  -0.0728350  -0.3783700   0.3549578  -0.7875659
   1.0102507  -1.0500863  -1.0304736  -0.0394495  -0.0746796   0.0121149
  -0.0908178   0.0328771   0.6190439  -0.6793424   0.0895869   0.5837545
   0.6172019  -0.0879234  -0.1070956  -0.1951989   0.3292950   0.2892883
  -0.4726588   1.0754173   0.8919393   0.1474349   0.1722243  -0.1625728
   0.2409639  -0.3535628  -0.1068146   0.0131793   1.6184261   1.1464474
   0.0385893   0.1339858  -0.1506497   0.2773479   0.2217186  -0.3051943
  -1.7134151  -0.5621945   0.3958938  -0.1936002  -0.1725362   0.0344704
   0.3673334  -0.2954581  -0.8053846  -0.5209712  -0.5370674  -0.2838200
  -0.0392483   0.0904150  -0.0874898   0.1082828   0.4532999  -0.4097840
  -0.3666196   0.1806599   1.4774773  -0.0241695  -0.2588421   0.2133689
  -0.7417845   0.1752631   0.2856296  -0.4645858   1.3373783  -0.2603475
   0.2644694   0.1968712  -0.0280766  -0.6255938   0.0212783  -0.4313767
  -0.1466777   0.5336589   1.0516746  -0.1466712   0.0449395  -0.0179644
   0.6426429  -0.8170083   0.4009720   2.8127310  -1.2504039  -0.4850707
   0.0346772   0.2529888   0.3838264  -1.0235459  -0.8207584   0.0572412
  -1.6149421  -0.6256933  -2.0719721   0.2487913   0.1480393   0.1660058
   1.7650516  -1.2028023  -0.3509480  -0.1496934   1.1267749   0.1733107
  -0.0392337  -0.2534418   0.0106372   0.6787951   1.4632707  -0.3202834
   0.9794414  -0.3588065  -0.3759350   0.0847210  -0.0834421   0.0458248
  -0.3837369   0.1151181   0.0350538   0.3561990   0.2722824  -1.1507730
  -0.1934596  -0.0606408  -0.2058050  -0.2998331   0.3869974   0.6337529
   0.7471164   0.8087187   0.4131435  -0.1660896  -0.3451780   0.3914645
  -2.3111916   0.0760291   0.0305036  -0.4180925  -0.0856033  -1.7027282
  -0.1730375   0.0494348  -0.1669103   0.6972837   1.4225706  -0.1473665
   0.2774379   1.5748149   0.2424062  -0.2072990   0.1225490  -0.1285288
  -0.3315951   0.6705925   1.0306237   0.4922749  -1.8809756   0.8376361
   0.1395887   0.3884269  -0.0854944  -0.1319888  -1.6187906   0.8581674
   0.7838394   1.0020311   0.9302114   0.1702759   0.1292708   0.2311487
   1.0027170  -0.6794007  -0.4630303  -0.5148617   1.1841855  -1.7192897
   0.1511676  -0.0182876  -0.3345818   1.7996849  -0.6823444  -0.4686651
  -0.0857867  -0.0108269   0.4070197  -0.0353603  -0.1592326   0.0995691
  -0.3686207  -1.4126273   0.9106589   0.3030277  -0.5711702   0.5210018
   0.0181014  -0.1566738  -0.0667749  -0.2537725   1.7329239  -0.6079616
  -0.1175262   0.7117378   0.2789649  -0.2421455   0.2950435  -0.3616938
   0.7085990  -0.4023348   0.0548725   0.3381865   1.4650892  -0.6652467
   0.1631234  -0.2080802   0.2128807  -0.5458463   0.4176145  -0.9937891
  -0.3033983   1.0031706   0.2989803   0.2540053  -0.1531084  -0.2016380
  -1.3876802  -2.0064917   0.1291891   0.6939970   0.7450452  -0.5043610
   0.1500346   0.0608958   0.3276914  -0.5581624  -0.2442355  -0.6662242
  -0.5971221   0.3390868  -0.0577557  -0.0343709   0.0859759   0.0243789
  -1.0033193  -0.7876424  -0.6669574  -0.7969659   0.6632463  -0.3362167
   0.1145011   0.1668336  -0.1310475   0.3899853  -0.9050013   1.1869146
   0.1931408   0.9554268   0.6494316  -0.0194604  -0.1195194   0.2038872
  -0.0651893   0.4726270   1.3666010   2.3964324   1.2869964  -0.5600196
  -0.2209259   0.2155469  -0.1442526   0.5038333  -0.7030269   0.3157324
  -2.1579082   1.4566852   0.1862819  -0.1309995  -0.1219487   0.1159152
  -1.3053197   1.2683405  -0.7250184   2.0673242   0.7129645  -0.6433983
   0.1953851   0.2303710   0.2828555   1.7336839  -1.0780699  -0.2582716
   0.9196361   1.2922577  -0.2360517  -0.0154297  -0.1286881   0.0589904
   0.4373005  -0.1276128  -0.4621306  -0.0515102   1.4389094  -0.4813884
   0.2248814  -0.0737838  -0.2034267  -0.1977521  -0.2897848  -1.0092580
   0.7128441   0.8761684   1.7914405   0.3613107  -0.0191731  -0.3207967
  -0.7779437   0.5857947   0.0481865   0.2699222   0.3559666   1.3196391
  -0.0220887  -0.1053270   0.0239532  -0.3520732   0.2414982   0.2000483
   0.2067157  -1.5496852   0.6592631  -0.0263070  -0.0454629  -0.0305767
   0.6649763  -0.2226046  -0.4801221   0.3090161   1.2945017   0.6208530
  -0.0660406  -0.0486807   0.1924931   0.0074191   1.2038019  -0.0850795
   1.1027383   0.4529788   0.3968217  -0.0237080  -0.1492503   0.0098191
  -0.2433572   1.2341928  -1.0052239   0.0141540   0.3303211  -0.1462287
  -0.1027323   0.0473341   0.0646348   0.6723887  -0.6111595  -0.6410714
   1.7093179   0.2873510  -2.5482261  -0.2804638  -0.0286771   0.0497700
  -0.0897384  -0.8075227  -0.1510239   1.0665792   0.5307024  -0.3083091
   0.3743749   0.1625556  -0.3635648   1.4831039  -0.4307103   0.5831907
  -2.2777505  -0.0512115  -1.0165271  -0.1461409   0.1600016   0.0769651
  -0.2911905   0.2794414   0.8120043  -0.5766660   0.6713322  -0.6545257
  -0.0190215  -0.3954834  -0.0075924   0.0662973   0.4063284   0.6068280
  -0.2249068   0.0991622   0.1721010  -0.2152221   0.0011896   0.2831640
  -0.5736945  -0.2298211  -0.1484143  -0.4537643  -0.0005905   0.7213678
   0.1400167   0.3631388   0.1188624  -0.8305054  -1.3391271   1.2008191
  -0.8016199   0.1476090  -0.0927752   0.0175154  -0.1986623   0.1310795
   0.8393163   0.6981087  -1.8592671   0.2454355   0.5883069   0.5192987
  -0.0876400   0.0508036  -0.2967551   0.1138286   0.0468336   1.7081636
   0.1445877  -0.1638027   0.1663206   0.1302608  -0.1936459   0.1112763
  -0.2581963  -0.0884829  -0.3253703  -0.4186538  -0.2626445  -0.7145990
  -0.1313198  -0.1205051   0.1086462   0.0744563  -0.3711255  -2.0350368
   0.4607148   0.6971406  -0.3368425  -0.0541808  -0.0744549   0.1691126
  -0.6028326   0.5267983   1.0683204   1.9105179  -1.1249830   1.1534030
   0.0989489   0.1747275  -0.0890231  -0.0654787  -0.6075965   0.4297054
   0.2891597   0.1312087   0.0085015   0.0463629   0.2143984   0.1839742
   1.4916382   1.8107234   0.4142696   0.3939599  -1.3738421  -0.1758641
   0.3677799   0.0690965   0.0822864   0.2384834   1.0873107   0.6226717
   0.5664821   0.5032531   0.6805425  -0.4316627  -0.1868502   0.3160344
   0.3680696   0.1413134  -0.3454469   0.4439447   0.3278491  -0.4636360
  -0.1785658   0.1495240  -0.2258291  -2.2365410   0.6894333   0.3431880
  -0.2366021   0.6978493   1.1249158  -0.0937994   0.1413536   0.0256877
  -0.7916288  -1.8988429   0.4337457   1.1700225   1.1726496   0.3589409
  -0.1249714   0.0786664   0.1461343   0.7500434  -0.2645369  -0.4880722
  -1.0392147   0.3211240  -1.7693216  -0.1888813  -0.0139749   0.0651217
  -0.0287846   1.3328998   1.5899854  -0.3026032  -0.3812752   0.8472995
  -0.2205818  -0.4173022  -0.0995999  -0.1357455  -0.3590170   0.2662262
   1.0190568   0.0854291  -0.0704485  -0.2678335  -0.1063360   0.0974340
  -0.0093772   0.5322510  -0.8795734   1.4914248  -1.8117479  -1.1099585
   0.2032442   0.0829839  -0.1023627   0.3590501  -0.3386274   0.0839162
   0.2707475  -0.7959571   0.6221748  -0.0666219  -0.0401571   0.0294782
   0.6355560  -1.2907135   0.2085091   1.4727675  -0.3504192   1.1459489
   0.3437315  -0.4665904   0.0184525   0.2190112  -0.0411321   0.3961089
  -0.1042209  -0.3983642   1.6420805  -0.0587717   0.0165525  -0.2201042
   0.8856311   1.3148916   1.1343157   1.0118358   0.6449619  -0.2398857
  -0.4467787  -0.0428514   0.0308784   0.9802903   0.5480271   1.3516697
   0.5873967  -0.4448452  -1.5567906  -0.2569601   0.1173766  -0.0280777
  -0.9868414   0.7788146  -0.2089799   1.6536984  -0.5026367  -0.5371634
   0.2118009   0.0510236  -0.1784288  -0.4575096  -1.0971224  -0.5163346
  -1.0391854  -0.6709957   1.2413318   0.0194683  -0.1785076   0.4162523
  -0.1560684  -1.2276930  -0.4510708  -0.6340834  -0.5604677  -0.0717267
  -0.2040621  -0.0497619   0.2868366   0.6654161   2.5585818  -1.2868263
  -1.0820898  -0.4384792   0.7362629  -0.0033361  -0.0982410   0.1393282
  -1.4048411   0.9727391  -0.9387727  -0.0044413  -0.0642310   0.5867876
  -0.0300931   0.1193687  -0.2171907   0.8536917  -0.5568839   0.9337323
  -2.2602246  -0.7386029   1.0611609   0.1544553  -0.3053609   0.1808618
   0.4775755   1.5893186   1.7390180  -1.0021863   0.1309712  -0.1351957
  -0.1274254  -0.0788052  -0.1927159  -0.1527541  -0.2514772   0.8216118
   1.9543123  -0.7287056   0.0294642  -0.0256922   0.0779298   0.0039661
  -1.0628921  -0.5426083  -0.1286365  -1.0477353  -1.0872204  -0.9225162
   0.6047251   0.0125880   0.4740379   0.9466777   1.6020498   0.7718208
   0.5527107  -0.2042757  -0.9821708  -0.0659299  -0.1086633  -0.2079467
   0.1426945  -0.7258069  -0.2708436  -2.5038495  -0.6282279   0.3593856
   0.1012862   0.1113989  -0.0171376   0.7148798   0.0026066  -0.0086281
   0.4520057   0.2190680  -0.4158048   0.2759888   0.1653377   0.0221913
   1.1031429  -1.3621771   0.4176165   1.3421576  -0.8049524  -0.9220428
  -0.1067532   0.0598478   0.2594828   0.5386505   0.3823443   0.7361742
   0.3472526   0.1027873   1.3906996   0.0821443  -0.1161708   0.1720777
   0.5787850  -0.2998484   0.0421835   0.5082778   0.3620040   0.3406774
   0.1725661  -0.1001824   0.4096563  -2.0909996  -0.1751192   0.2992618
  -0.8044149  -0.3102210  -0.0435556   0.1121529   0.2394868   0.0234031
  -0.8015678   0.0050010  -0.2069380  -1.4649197   0.3526568  -0.7272801
   0.1666227   0.2845956   0.1002255  -0.3014623   0.6263067   0.3959915
  -0.8037654   0.9713925  -1.5026976  -0.0293149   0.0252970  -0.4332388
  -0.0924757  -0.1943386  -0.6215887   0.3573457  -0.5211307  -0.5353748
  -0.2349309   0.0873568   0.3083102  -0.1217463  -0.9980273   1.5819449
  -2.5758748  -0.1731473   0.3662795  -0.0386647   0.2896405  -0.0379497
  -0.4406853  -0.1591545   0.3453590   0.6543705   0.8734763   0.0398139
   0.0807944  -0.3762383   0.0422015  -0.3918945   0.9155591  -0.2821429
  -0.5660988  -0.9775341  -0.5423793  -0.1643468  -0.0539742   0.1447837
   0.4749292  -0.3256956   0.2299410  -0.2056502   1.6223401  -0.6763394
   0.0582676  -0.3567587  -0.0846466  -1.2747259  -0.3915143   1.2989408
   0.2923915  -0.5001574  -0.9437488   0.1363573   0.0008650   0.1735585
   0.3847058   0.2719380  -0.4364676  -0.4136851   0.4865151   1.5193410
   0.2838998   0.3769653   0.1702555  -0.0898476   0.8978987   0.1946729
  -0.2784897  -1.0432857  -1.4127882  -0.0936240  -0.2564895   0.1395148
   0.9407778   0.5125732  -0.6981213   0.9450167   1.1247118   0.3422497
   0.0601288  -0.0389628   0.1121104  -0.2521040  -0.4928221   0.4570464
   1.8203809   0.4809881  -0.0830905  -0.1658356  -0.1934630   0.3003145
  -1.4164430   0.4758994  -0.5336969   1.5919012  -0.6552910  -0.9603660
   0.0116123   0.1760411  -0.0517260  -0.5103818   0.9990793  -1.1915017
   0.4742952  -0.4504008   0.7730602   0.2716604  -0.0924542   0.0140067
  -1.1513145   0.7379514  -0.1204518  -0.2371304   0.2455314  -0.6916544
  -0.2447319   0.1035560  -0.4644556  -0.7696065  -0.7906457   0.1661372
   1.0808936  -0.2937678  -0.2527888  -0.0652248   0.0198767   0.0359652
   0.4518048  -1.5264277  -0.4485581  -0.7587802  -1.5101019   0.5576128
  -0.0808314   0.2380241   0.1694573   0.5141905  -1.3915175  -0.6262789
  -1.7150126  -0.0138467   0.3654342   0.0949842   0.4032516  -0.5423905
   1.5228957   0.6905459   0.2893870   0.3709096   0.2076840  -1.0008876
  -0.1768412   0.1970287   0.0878759   0.3537588   0.4364029   0.6918009
   1.0545801   0.9289083  -0.4103286  -0.1803604  -0.0644541   0.5546777
   1.0954919  -0.3142571  -0.3022764  -1.0992259  -1.0207586   0.6390041
  -0.0219870   0.2499763   0.2169205  -0.9816173   0.2640745   0.0757086
  -0.0428660  -0.9410793   0.0792509  -0.0993181   0.0535438  -0.1942428
  -0.7010603  -0.1692630   0.5492126   0.9966248  -0.7223233  -0.0255629
   0.1267654   0.1808912  -0.1780713   0.1738472   0.4677163   1.0982058
   0.0846388   0.3789121  -0.2683809   0.2513639  -0.3863626  -0.0648481
  -0.7896318   0.2012168  -0.7096627   0.0242645   0.6525513  -0.5930290
   0.2126945  -0.1058790  -0.0000437  -0.7276827  -1.1112895  -1.5358571
   1.6020350   0.6953900   0.3432220   0.1199883  -0.2547852   0.3151454
   1.3012991   0.0775609  -0.7757295  -2.8750379  -0.1239106   0.9042215
   0.2732759   0.2360832   0.0368120   0.9851550  -0.5642924  -1.0359290
  -0.9801466  -0.1452432   0.2081429   0.0954733   0.0236361   0.1004360
   0.6905096   1.0887299  -0.2274432   1.3488809  -1.1033133   0.8531695
  -0.0315439  -0.3074225   0.1857242   0.0403814  -0.4208471   0.0261740
  -0.2045595   0.9780140   0.0362016   0.2351214   0.0376112  -0.0822765
  -1.1730608   1.1054585   0.8219866  -0.4664376   0.1684090  -0.5170519
   0.2825521   0.3140699  -0.1408290   0.3179766  -0.4438659  -0.3164876
  -0.5122925   0.7861485  -0.1708203   0.2442091  -0.2971030  -0.0468737
  -0.5329083   1.0888082   0.8926805  -0.0554499   0.4116395  -0.4594967
  -0.2291545   0.0020528   0.1131533  -0.3893290  -0.6752044  -0.1736518
  -0.9362615   0.5873720   0.2835451  -0.0217058  -0.1722451  -0.0026599
  -0.1964920   0.5474688   0.8518080  -1.2743636   0.0570970  -1.1000626
  -0.0015249   0.0878507   0.1521089   0.7280659  -0.9549959  -0.7754325
   0.1001142  -0.4410385  -0.4449501  -0.0780853  -0.0144003   0.2369018
  -0.5511171  -0.6676069  -1.7164783  -0.6390153  -2.0604467   0.8349829
  -0.0880299  -0.1206113  -0.0397539  -0.0105207  -1.0417833  -0.9058765
   1.4442171   1.1852337  -0.3872682  -0.0045041  -0.3808266   0.0464513
   0.3876442   0.4738773  -0.0828602  -0.3080666  -1.0917916   0.2075625
   0.0373818  -0.1439366   0.0084517   0.1936244  -0.8897109   0.5316347
   0.1938276  -0.3552303   0.3816885   0.0312909   0.0475056  -0.1949037
  -0.1120771   0.6039534  -0.7675471  -0.3773409   0.8156797  -2.6051376
   0.1506792  -0.1153452   0.3495970  -1.0196909  -0.6329184  -0.5449780
  -0.4484395  -1.5536388  -0.1012289  -0.0813783   0.0025746   0.2397717
  -1.2565954   1.3038336   0.1937333   0.3552962   0.2288991   0.6640569
  -0.0612851   0.1763618   0.0108651  -0.4715031  -0.6859717   1.6065490
   0.2944137  -0.6412861  -0.0457260  -0.0152857  -0.0327880  -0.0311044
  -0.2272481   0.8969045   1.1074228  -0.9698470  -0.1032608   1.6302217
   0.0349361  -0.1058465   0.0191978   0.1633488  -1.0540565  -1.5110730
  -0.0704107   0.6018435  -0.5019058  -0.2764938  -0.1284643  -0.1878837
  -0.7025160  -0.2978985  -0.0192272   0.3417065  -1.4673538   0.5060083
  -0.1537928   0.0472741  -0.3436659  -1.1522645   0.2984724   0.6452531
  -0.5173621   0.1161644   1.8877702   0.1503267  -0.1627661   0.0180712
   0.3036072  -0.0039988  -0.3283522   0.5054007  -0.6267875   0.8585543
  -0.1909205   0.1137979  -0.2239059   0.5142516   0.6800975   0.9244837
   0.8753285  -0.2375330   0.7972936  -0.0413098   0.0153888   0.1757984
  -0.1678335  -0.8516853   0.2593522   1.2221861  -0.4731504   0.6691573
  -0.2007087  -0.1330094  -0.0300499  -0.1589582   0.0519319  -0.3980899
   0.1381828  -0.2671016   0.3437392   0.1976014   0.3335481   0.2661035
   0.4641515   0.6953210  -1.0926040   0.1569391  -0.0891163  -0.0839038
  -0.2138639  -0.2844118   0.1891229   0.8302307   0.8336265   0.2708315
   0.4702953   1.5539024  -1.2426780   0.2733847   0.1406593  -0.3234823
  -0.1692884   0.2665322  -1.1080343   0.2689212   0.1861943  -0.8878085
   0.1025560   0.1762314   0.1037123   0.7490854   0.9923998  -0.6261787
   1.3153731  -1.0100377   0.7813585   0.1863522  -0.0484077   0.0385911
  -1.4498920   1.6020228   0.9311555   0.8085938  -0.1705536  -0.4328356
  -0.1508653  -0.0824073   0.2865134   0.2439614  -0.1288068  -0.5770437
  -0.3817458  -0.8204833  -0.5281576   0.0182988   0.3340680   0.0037486
  -0.5679353  -0.0512551   0.0621752  -0.1076106  -0.1873744  -0.0357131
   0.1093707  -0.0877078   0.0344734  -0.0344616   0.5774965   1.0901173
  -0.2147404   0.5215875   0.4950529   0.3238558  -0.1517791   0.1750145
   1.2668873  -1.2318195   0.5856947  -0.4651036   0.0360391  -0.4021489
  -0.0626508  -0.3553329   0.2610407  -0.3177965  -0.5051010   0.9312771
   0.3035071  -0.9872434  -0.0050594   0.0045944  -0.1100961  -0.1582691
   0.3185079  -0.2315919   0.2890412  -0.4342697  -0.3318675  -0.3079744
   0.0234641  -0.1340907  -0.0021733   0.1323646  -0.5307488   0.2921537
  -1.3871983   0.2243580  -0.8709957   0.0391791   0.0864967  -0.1358489
   1.1807785   0.2061190  -1.0129347   1.2633188  -0.0665334  -0.9759200
  -0.2206234  -0.0980688   0.2517667   0.9832073  -0.4127554  -0.2541912
   0.9104020  -1.9733676   1.4237233  -0.1347564   0.0908759  -0.1867995
  -0.7056733   0.3548204   0.1996525   0.0070974  -1.1855735  -1.2983524
   0.2572685  -0.2160552  -0.3008542   1.3112336   0.1130110  -0.3808992
   0.6369981   0.2996570   1.2124747  -0.1060293  -0.0033349   0.1892424
   0.1868411   0.5236261  -1.3320409   0.0619254  -0.2416715  -1.4891505
   0.0423453   0.0653935   0.3145793  -0.3037043  -0.9108110   1.1090817
   0.8022671   0.3773723  -0.4761348   0.1648749   0.1206942  -0.1942180
  -1.2894644  -0.2491437   0.5352123   1.6596372   0.0604979  -1.2046216
   0.0815244  -0.2482788   0.0436682   1.3686593  -0.0387378  -1.2302481
  -0.4932849   0.4257508  -0.8462779   0.1404840   0.1398595  -0.1040167
   0.5698251   0.0413160   0.3425960   0.5051854   0.3059217   0.7713335
   0.2531087  -0.1079932  -0.0313955   0.4667026   0.1177284   0.7681291
   0.6342945   0.6550482   0.2748585   0.3295918  -0.0283064  -0.0358796
   0.6039394   1.0978088  -0.2738039  -0.6684076   1.0745143   0.6189590
   0.0902184   0.2686789   0.0380684   1.6655021   1.1278744   0.1083821
  -0.0962344   1.1491385   0.2184140  -0.0970550  -0.2330500   0.1788580
  -1.0868881  -0.6397005  -0.1461101  -1.0469093  -0.1663084  -0.4408863
  -0.0739658   0.2736673   0.0897473  -0.8532394   1.0116078  -0.0838966
   0.6084830   0.7074994  -1.3255932   0.1469957  -0.0574654  -0.0574433
  -1.2236242   0.0033408   0.1425040  -0.5731047  -1.3584303   0.3665132
  -0.0461479   0.0130150  -0.1106791   0.1464690   0.7218338   0.1868238
   0.6507198  -0.0613191  -0.9346040   0.3038086   0.1269778  -0.3488055
  -1.5872281  -0.5025872  -0.8922519  -1.4199055  -1.4220476  -0.1630547
  -0.0264938  -0.0126312   0.3115860  -0.6198003  -1.0133933  -1.6450931
   0.5042346   0.2047325  -0.2630462  -0.0347971  -0.3017370   0.2145634
  -1.5854176  -0.7957562  -0.3555943   1.1638077  -0.2840145   0.0827869
  -0.0952437   0.2967907  -0.1459883  -0.1085120   0.1023098   0.5287724
  -1.2160705   1.5696923  -0.1998893  -0.1150095   0.1523768   0.2355629
   0.2317878  -0.5608162   0.5453150  -0.4715527   0.7243116  -0.6360682
   0.4653257  -0.2163497  -0.1414295   1.3656183  -0.3319451   0.2414919
   0.4859675   0.8475938   0.6767661  -0.3074560  -0.0084131   0.1761835
  -0.0857056  -0.7890042  -0.0152908  -1.0843558   0.7088124   0.5278321
  -0.0349951  -0.2051719   0.0964165   2.2589431   0.0462450  -0.8422055
   0.1942563  -0.8428435  -0.7869709  -0.1906261   0.2579546  -0.1686612
   0.1539708   0.0501809   1.2826179  -0.0429325   0.8367851   0.4934134
  -0.0879121  -0.2923019   0.1312010   0.9308351   0.6404219  -1.4221157
   0.7175544  -0.3152043   0.2920437   0.1223037   0.1368059  -0.1250586
  -0.1658677   1.1078398   0.9514438  -0.5274039   1.0486788  -0.5721390
   0.0168826  -0.2543040  -0.0023535   0.6289517   1.0698692   2.4419141
   0.0920583  -0.6236226   0.1615563  -0.2188439   0.3804950  -0.1787823
  -0.1635356   0.5540293   0.5380850   1.0839025   1.2009567  -0.6301008
   0.1566823  -0.1661222   0.0522319   0.0706422  -0.1729980  -0.7124693
  -0.7240990   0.1534739  -1.7282875  -0.3144004  -0.2190708   0.4201973
   0.8366937  -0.0091165   0.5215682  -1.1261038  -1.2817538   0.4674703
  -0.0078965  -0.0406083   0.3467265  -0.4244644   0.2543985   0.2050788
   1.2839177  -0.4033358   0.8001761   0.2088773  -0.3093862  -0.2529705
  -0.5721551   0.0871492   0.7940029   0.2084261   0.0467949  -0.4198118
  -0.2113202  -0.1619321   0.0747086   0.0177694   0.2267950   0.8782517
  -0.0028603  -0.6126247  -1.6146894  -0.2072556  -0.3007603  -0.0561301
  -0.1418872   0.5672404   1.6453211  -1.3097659  -0.2100797   0.2938500
  -0.0724934   0.1522337  -0.0218861  -0.7595540   1.1560427  -0.0593336
   0.5424068   1.9305065  -0.0907892  -0.0360300  -0.0004075   0.0675458
  -0.1387807  -0.8449008   0.3786290  -1.3622930   0.3398118   0.7115700
  -0.2615188  -0.0463151   0.1831237   1.1556591   0.0502949  -0.2646079
  -0.0124151  -1.2459773  -2.0845339   0.0843727   0.1743951  -0.0910698
   0.4379606   0.7266178   0.8399959   0.7279302  -1.0406063  -0.6381081
  -0.0885683  -0.0714336   0.0678480  -0.7758091   0.1767623   0.0960143
  -0.0708926   0.7997254   0.4372324   0.0888299  -0.2114780   0.0479032
   0.0205912   0.2737786  -0.3992735  -0.1274188  -0.0730396   1.1881405
  -0.0413910   0.0930538  -0.0479775   0.9848405  -0.8735380  -0.8596762
   0.1557628  -0.0066617   0.8765680  -0.4877909   0.0586628   0.3373410
   1.1584558   0.6239088   0.6125642   0.9019006  -0.9130422  -0.0167540
   0.0171805   0.0395879   0.1100718   0.3664424   0.5906397  -0.5979863
   0.7122164  -0.0137695  -1.2289892   0.0531714   0.0820740  -0.1839626
  -0.1085737  -0.1149473   0.6173847   0.7850981  -0.4413899  -0.3015389
   0.0152179   0.1296917   0.2434482   0.2627982  -1.1007161  -0.1248670
  -2.3386469   1.3926330  -0.8276486   0.4101877   0.2067740  -0.1127427
   0.9085351   0.3341711  -0.6020432   0.5449561  -0.9678254   1.1847234
   0.0428307  -0.0339087  -0.1628499  -1.1094524   0.7552145   0.2751527
  -0.6667806  -0.2784508  -1.1533471   0.1253844  -0.2927600   0.1983229
  -1.4435622   0.0993391  -1.9104702   0.9615888  -0.8122307   0.0312829
  -0.0224773  -0.2909256  -0.1256148  -1.0430944  -0.6229456  -0.9216528
   0.9933289  -1.2266284   0.8002245   0.0121001  -0.0511912  -0.1338604
  -0.4610833   0.5132090  -0.0114022  -0.9674142  -1.2594784   0.5576069
  -0.0582963   0.2689890  -0.2983440   0.0168533  -0.1161071  -1.0753933
  -0.7283501  -0.7139722   0.4658650  -0.1959894   0.0459118  -0.0290005
  -0.0037822   0.5534358   0.3229332  -0.8593851  -0.2278564   0.0786030
  -0.1723244   0.1245678   0.3453376   0.2138503  -0.1241703   0.6651747
  -0.3112654  -0.6189221   1.6864203  -0.1626851   0.0789253   0.1974222
  -0.5720481  -0.6793741   0.6924936   1.4919852   0.1079309  -1.1146491
   0.0135170  -0.0112188  -0.1621636  -0.6094225  -1.2637184  -0.7505407
  -1.4296386   0.0921139   1.8710662   0.0965832   0.0375354   0.1344433
  -1.4303391  -1.3227934  -0.8463752   0.1707319   0.9243271  -1.0293427
  -0.2137300   0.1278085   0.3515358  -0.2116136   0.6440093   0.5599668
   0.2528446  -0.4445530  -0.4022868  -0.3399596   0.1304840   0.1882587
  -0.0129231   0.1877115   0.0908217  -0.2474674   1.0602094  -0.6938915
   0.3757307   0.1119842   0.0215483   0.6434793  -0.6333164  -0.8709889
  -0.1297973  -0.2866482   0.5144510   0.2520904   0.0360682  -0.1069356
  -0.1576470  -0.2410550   0.7744250  -0.2923503  -1.6738223  -0.4050621
  -0.1687351  -0.3704022   0.0436800   0.3338350   0.0852171   1.2650136
   0.9178470  -0.0373471  -0.1475636  -0.0261524   0.1807235   0.1524710
   0.8463795  -0.5034719  -0.9027028  -0.8323039  -1.0626098  -1.6256292
  -0.0405610  -0.0691498   0.0092662  -0.0636387   1.2290061   1.1840360
  -0.1395790   1.0974398  -0.0471919   0.0326176  -0.2213471  -0.2354823
   2.1985335  -0.3530313  -0.3111216  -1.2903162  -0.3541948  -1.5118375
   0.0504294   0.0540840   0.1124822  -0.0294807   0.7102847  -1.9575838
   0.3476193  -0.7244467   0.8319776  -0.3306921  -0.0779105   0.0303163
  -0.5716071  -0.1521970  -0.3237011   0.7547270   0.3039645   1.4206098
   0.0962648   0.0711347   0.1226984   0.6437973   0.1706683  -0.7555641
  -0.2361143  -0.0750595   0.3896156  -0.0056347   0.3160344  -0.0351494
   1.6578600   0.9847301  -0.3617269   1.2631869   0.5381616   0.9027836
  -0.0866705  -0.0955768  -0.3731946   0.3216471   1.1153120   0.2060363
  -1.5006769   1.8657832   0.3256301   0.0523331  -0.0177954  -0.0477373
  -0.5162175  -0.0102152   0.5842701   0.3533025  -0.8214182  -0.8239409
   0.0921041   0.1096501   0.1242136   0.4931906  -1.5664347   1.8393176
   0.1487240   0.3271411  -0.0967453   0.0939063  -0.2842727   0.0274084
   0.0813818  -0.0080289  -1.6274722   0.9734604  -1.3001927   0.3200186
   0.2061551  -0.1092456   0.1845556   0.6774562   1.3823615   1.6169953
   1.0635347   0.4255745  -0.2742167  -0.1166845  -0.0744329   0.1146179
  -0.3081909   0.1437274  -0.9920144   0.4689658   0.3338756   0.6655757
  -0.1963283   0.0875104   0.1220582   1.0512964  -1.3361809   0.8867699
   0.7926940  -0.5142484  -0.6000765   0.0700253   0.2428734  -0.2833047
  -0.1656142   0.1860231   0.0656500  -0.6430601  -0.0204976  -0.5468312
   0.2354480  -0.2533945  -0.0284549  -0.0319970  -0.4462541  -1.2239820
  -0.0399650  -0.5723755   1.1150366  -0.0546304  -0.0085533   0.1273252
   0.0004366   0.0364218  -0.3386856  -0.0212237   0.3860720   0.8913012
   0.3094895   0.1288631  -0.0402496   0.7811643  -1.4783710   0.3427678
   0.0019671   1.1790749  -0.3669268  -0.0336822  -0.0615524  -0.1924442
  -1.0079854   0.6261674  -0.7150046  -0.3797826   0.1425801   0.5856443
   0.0286041   0.0912929   0.1012033  -0.4387191   0.2737104  -0.0246541
  -0.6582509  -0.7694880   1.0879016   0.3757423  -0.1842681  -0.1976636
  -0.5523261  -1.7142292   0.0098735  -1.8765455   1.0716553  -0.6630062
   0.1149202  -0.0428672  -0.3830019   1.3726856   0.2147711  -0.6355134
   1.1685894   0.1279871   0.2412769  -0.1486124  -0.0812226   0.2841104
   0.2528302   0.2003640   0.3409782   1.2887381   0.0625766   0.2866818
  -0.0478225  -0.4431901   0.2018474  -2.0792980  -0.6741866  -0.6565247
   0.0911001  -0.7359074   0.3540068  -0.1626357  -0.1216791   0.0790266
   0.7773007  -0.4952802  -0.0053162   0.4975733   0.9312828   0.4818635
   0.1450825   0.2989186   0.0455795   0.0448748  -0.9038068  -0.8949580
  -0.2875901  -0.2460441  -1.1256979   0.1271648   0.0858275   0.4140415
   0.1567124   0.0454361  -0.0427565   2.2903986  -0.4823596   0.3223646
   0.1575831   0.4528566   0.0169507  -0.4247528  -0.5993780  -1.8480769
  -0.7379586   1.2595562  -1.5286270   0.2106517   0.0955734   0.0432298
  -1.6384604  -0.8109062   0.1495163   0.8222686   0.4054897   1.0251418
   0.0190987  -0.0635367  -0.0543455  -1.0563288  -1.5662097   0.2240104
   0.5631937  -1.0187173  -0.1168263   0.2146604  -0.0357979  -0.2516318
  -0.1132151   0.2225715   0.9348124   0.0045056   0.6213635   0.9429965
   0.4540512  -0.0434546   0.0815101  -1.1995147  -0.0982660  -0.1437245
   0.1840478   0.6374463  -1.3102784   0.2185654   0.2183298  -0.1827019
  -0.1819339  -0.8591586  -1.4088694   1.5474575  -1.2644067  -0.3831578
  -0.0063733   0.2581088  -0.1337514  -0.8565544  -0.8365621   0.4352056
  -0.4298089  -0.2106273  -0.0996460   0.2487313   0.1125582   0.1967635
   0.0055256  -1.1242858   1.0212594   0.8726007  -0.1713334   0.3477603
   0.2523754   0.2116536   0.1973701  -0.2618823  -0.4147983  -2.7616422
  -0.6829897  -0.6361613   1.2215092  -0.4532138  -0.0954905   0.2864993
   0.2215488   0.1727733   0.1122945   1.0654893   0.4477411   1.2420428
  -0.3577822   0.0207588   0.0744065  -0.6440464  -0.7934223   0.5216395
   1.7004608  -0.6655422   0.3133937   0.0020325   0.2800948  -0.1504728
  -1.1194062  -0.2197139  -0.1119999  -0.1200465   0.2446880   0.0094602
   0.2104436   0.0956263   0.1470899  -0.5198625  -0.4876663  -0.6324658
   1.4536662  -0.6930859   0.4720966  -0.2745432   0.2711941  -0.0089435
   0.1083158   0.4580051  -0.8102108  -0.6564653   0.3362150   1.3845729
   0.0911508  -0.2700712   0.2915823   0.5651070  -1.2735726  -2.2125227
   1.6010479   0.1670371  -0.1302460   0.0100691   0.0509287   0.2903020
   1.2742566  -0.7678977  -0.1134358  -0.9630684  -1.1276104  -0.0987313
  -0.0611399   0.3944915   0.1612535   0.3649706   1.1793096  -1.3197016
   0.1478688   0.3243434  -0.0025066   0.0381386   0.0381881  -0.6410390
  -1.6035433   0.3567322  -0.2496653   1.9516153   0.3130627   0.6476579
   0.3186916  -0.2899236  -0.0338154  -0.2255206   0.1291725   0.5954365
   1.7053391  -1.0025010   0.6383998  -0.0295620   0.0609790  -0.1654842
  -0.0157337  -0.4704996  -0.8143655  -0.7277171   0.2648802  -0.2416149
  -0.0835198   0.1626193   0.0836443   0.3095451   0.2112539  -0.3230865
  -0.1730387  -0.3728376  -0.0494950   0.3607236  -0.1752508   0.0081633
  -1.8227842   0.2723790   0.2338059   0.9499046   1.0732473  -0.3295436
  -0.1038693   0.3553285  -0.2801187  -0.7530150   0.2181131  -0.4584053
  -0.5111305   0.6106470   0.2505386   0.0563851  -0.3479137  -0.0852374
   0.4287270   1.3278570   0.3903760  -0.8158953  -0.7512097  -1.4667677
   0.1927729   0.3214347   0.1337619  -0.4232337   0.7547175  -0.7406817
   0.8573250  -1.0822496  -0.4423662  -0.2224081  -0.1783170  -0.1453869
   0.0351835  -0.1025698  -0.3716577   0.7116382   1.2316824   0.2079708
  -0.0767261   0.0488655  -0.1560906   0.3802318   0.5037470   0.4487601
  -0.6458032  -1.1871263  -1.0698165  -0.3641517   0.0909986  -0.0072553
  -0.2904067   0.0709209   1.7481925  -0.2929137   0.1104736  -0.1626437
  -0.3513197  -0.1922382   0.0496870   0.0411877   1.3224423  -0.3321107
   0.9999073  -0.5822991   1.1131083  -0.0612158  -0.2284571  -0.0322174
   0.1097977   0.2024071  -0.8309441  -0.2006557   1.7638288   0.5088978
   0.0250859   0.0246328   0.2146000  -0.5571294   1.3896651  -0.3038388
   0.9344839  -0.2921208  -0.1941747  -0.1590683  -0.0999022   0.2175470
   0.0641976  -0.8094598   0.9135450  -0.7346779   0.3989019  -0.2164570
   0.2799771  -0.1911436   0.1320938  -0.9718492   0.6418315  -1.0758562
   0.2236811  -0.6880536   0.7530857   0.0215606  -0.4501750  -0.1306485
  -0.0733462  -0.4508455   0.0716086  -1.7162802  -0.1222456   0.6844674
  -0.0517332  -0.1712636  -0.0300323   0.8392888  -0.3540385   0.0017304
   0.2103559   0.1900186  -0.3523463   0.4282187  -0.1048103   0.0986772
  -0.5812846   0.4983179  -1.0826126  -0.1608312  -1.2063882   0.1071224
   0.0305312  -0.0440347  -0.2350129  -0.0846190  -0.6858701   1.6863973
  -0.4965905  -0.6292232  -0.6148372   0.2895229  -0.1864858   0.0569990
   1.3679240  -0.3832303  -0.2335587  -0.2903352   0.1295296  -0.5682397
  -0.2979657  -0.1008514   0.0690226   1.7434803   0.1577795   0.8465159
   0.4409054   1.0141401   0.4814095  -0.0114026   0.0601619   0.0763392
  -0.6493982   0.5650828   1.2460303   0.2567562   0.8778091  -0.8696241
   0.0825148  -0.0776896   0.1715934  -0.5370789   0.7177820  -1.2043933
   0.5228271  -0.6370745   0.2733451  -0.1334361   0.0111883  -0.0358212
   0.3295602  -0.5499087  -0.4387348   0.3430887  -0.4382741   0.1278724
   0.0429950  -0.2623828   0.4155613   0.7236136   0.3168260  -0.0233413
   0.3866826   0.6780481  -0.7503126   0.2343440   0.2985620  -0.1107010
  -1.7392539   0.1098103   0.2720015   0.8746974  -1.5368453  -0.2870396
   0.0773094   0.2406175   0.0374912   0.0057292  -0.6749693   0.9578131
   0.3959758  -0.3813356  -0.0458010  -0.4300972   0.0137290   0.0527836
   1.7718523   0.0907985  -0.4549601   0.4341979   0.6049820  -0.5468305
  -0.1386304   0.0333198  -0.1684943  -0.2422917   0.0885954  -0.7871062
  -0.7997453  -0.3753974  -0.1492503   0.2789160   0.1170153   0.1716913
   0.3504071   1.0762038  -0.5722381  -0.5640233   0.9985493  -0.9722372
   0.3437015  -0.2357283  -0.1576803  -0.4814550  -1.4329817   0.3499800
  -0.2249246  -0.0086514  -0.8895928  -0.1820891   0.0798304  -0.1431503
  -0.0134179   0.0845457   1.0629531  -1.5275160  -0.3603230   0.5619605
   0.2736212  -0.0935898   0.0261844  -0.3668593  -0.3106340   0.7493775
  -0.4585034  -1.2342372  -0.3329858   0.1484848   0.4402491   0.0526619
  -0.3865987   0.8690231   1.4251062  -0.2557955   1.0018859  -0.2591235
  -0.1895463   0.0100985  -0.0755403  -0.6184644  -0.8772297   0.6310581
   0.2120630   0.8773184  -1.8380003  -0.2383943   0.0370963   0.0516226
  -0.0887254   1.2590606   0.4483773  -0.4238296   0.7455506   0.2408208
   0.0153560  -0.0629815  -0.2605840   0.2322106   0.3451871   0.6976207
   0.1891317   0.3249976  -1.0310025   0.2420989   0.2875236  -0.1800752
  -1.8213558   0.0341783  -1.1952227  -0.2130231  -0.8949314   0.3551667
   0.4326881   0.0042462  -0.2585313  -0.0449004   0.1649186   1.5278873
   0.6044456   0.5038858  -0.2522931  -0.1675901  -0.0549381  -0.0581147
   0.4578785  -0.8441195  -0.2823580  -0.4018784   0.1697772  -0.1784531
   0.0574417  -0.0608758   0.1215687  -0.6145517  -0.1457885  -0.0296766
  -0.1980339   0.1293631  -0.5799373  -0.0646274  -0.1202421  -0.0835173
  -0.7161262  -0.1534767  -0.1018223   0.4233823   1.2780110   0.9278434
   0.0143634  -0.1213617   0.0492285   0.5440384  -0.2025371   0.4316992
  -0.9722190   0.2767424   0.0785544   0.1462831   0.1714581   0.0177031
  -0.9203398  -0.2330539  -0.2536739  -0.2831266  -0.0088467   0.4174605
   0.0493578  -0.2957080   0.1463725  -0.2490281   0.2329428  -0.9163289
  -0.3762401  -0.4458587  -0.4632921  -0.0220879  -0.1867389  -0.0133513
   0.0192257   1.1847991   0.6885141  -0.5976921   0.8249735  -1.2854414
  -0.1937660   0.0663420  -0.0038394   0.3008921   0.4805999  -0.0487229
   0.7505655  -0.9034218  -0.8139346   0.2280434   0.1156536  -0.2382439
  -0.4247718  -1.4613934  -0.0908584  -0.2116312   0.4292742  -0.1201364
   0.1938671   0.2761418  -0.1308402   0.0532290   0.8161985   0.9648806
  -2.7869811   0.3447272   1.4301662  -0.1584060  -0.0346354   0.3055964
  -0.8674738   1.5548488   0.8960677   0.0332041  -0.8772584   1.0136507
   0.3436303   0.1138848   0.2707205   0.6118065   0.0373242   1.2252059
  -0.1224607  -0.1219292   0.2454015  -0.0334583  -0.1495224  -0.2175625
   0.4874909  -0.6347110  -0.2700756  -0.7809480  -0.1518085  -1.1470329
  -0.2342448  -0.3715035   0.0229849  -0.5308583   1.0075691   0.7400824
   0.9121266  -1.1082395  -0.4409305  -0.0206673  -0.1600701  -0.0968721
  -0.2126411  -0.8115243   0.7969354   0.0699811   1.4376497   0.5458039
   0.0377728   0.2835409   0.1514127  -1.1019958   0.1087919   0.4635686
  -0.3138701   0.2400864   1.6748455   0.0727895  -0.3643495  -0.2850348
   0.9213808   0.5275474  -0.3161714  -0.7374087   0.3487853   1.1497630
  -0.2799723  -0.0805094   0.3824908   0.5431834   0.4373501   0.3904707
  -1.0133972   1.2821480  -0.1292604   0.0587994  -0.0346175   0.2253291
  -1.0497847  -0.0293652  -0.5211167  -0.0998086   1.4458935   0.3675827
  -0.0435936   0.1848701  -0.1189594   0.3755044  -0.2028757   0.1660921
  -1.8564454  -0.2125470   0.3323129  -0.0376007  -0.0244312  -0.0638862
   0.0197617  -1.1345423  -0.7346146  -0.8004374   1.0230407  -0.8181500
  -0.0275163   0.0294028  -0.1539762   1.7219207  -0.6826964   0.4803200
   1.0981642   1.2129327   1.5193683   0.0559398  -0.0571120  -0.0276182
  -0.5142877  -1.1033535  -0.6481552  -0.7802796  -0.0260377   0.4141584
  -0.2486551  -0.1587521   0.1010665  -0.4440452   0.1113673  -0.5490803
   1.0786076   1.0091903  -0.3305756   0.0931108   0.2209495   0.1818005
  -0.6959006   0.6458286  -0.0370583   0.2126482   0.6030982  -0.1921212
  -0.2447573   0.4570188   0.0750518  -1.5478040  -0.2719640   0.9191083
   0.4640173   1.1425058   1.6779455  -0.1680258   0.0860118  -0.4058075
   0.1598644  -0.0479703   0.3059761   0.5977264   0.8205839   0.5418823
  -0.2503948   0.2931077  -0.4897025   0.0347517   1.1042498  -0.9576701
   0.2000594  -0.3939448   0.6966807  -0.1245219   0.1388751   0.0757528
  -0.4667120   0.1308527  -0.0805739  -0.9795051  -0.4364340   0.1983422
  -0.0329986  -0.1919721   0.0166331  -1.5703419  -1.0601687  -0.5401266
   0.7183180   0.4918827   0.2640074  -0.0499898  -0.3178301   0.2609183
   1.2196314  -1.0749459  -2.0049119   0.2660800  -2.2339833   1.0877653
   0.1386115   0.3362353  -0.0377962   0.4580444   1.0917861   0.3725745
   0.2715557  -0.6250815  -1.9637733  -0.1002368  -0.6007454  -0.1927174
   0.3003546  -0.0926217  -0.0583039  -0.7814082  -0.0141952   1.1157283
   0.1637011  -0.3140808  -0.3802110  -0.6999949  -1.1588287   0.5935935
  -0.2274516  -1.2539411  -0.5712588   0.0913351  -0.1077076  -0.1515771
   0.7243922   1.4681776  -0.8501996   0.4126391  -0.9050486  -0.8490159
   0.1202958   0.0104085  -0.2443057  -0.9660758   0.9176267   0.6002037
   1.7701126   0.3863504  -0.4718730   0.1073613   0.0196388  -0.2418838
  -0.7403681   0.2842810   0.7956824   1.8930155  -0.1022951  -0.3769250
   0.4431457  -0.0891164  -0.1115265   0.9625218   0.5984475   1.7771871
  -0.5605983  -0.1281157  -0.5938964  -0.0723454   0.3534373   0.0580057
   0.3030962   1.1265576   0.5027965  -1.3060129   0.4820578   0.8500498
   0.0234854   0.1339262  -0.1426866   1.3340838   1.2191718   0.4170368
   0.3202816  -0.3065359   0.3426696  -0.2421021  -0.0176718  -0.1283057
   2.0469809  -0.1609468  -0.9537786  -0.2446340   0.3770783  -1.5487639
   0.0212388  -0.0361279   0.0043248  -0.5339872  -1.1861131   0.6073776
  -0.3145892   0.3250531  -1.9587340  -0.2068675   0.1734485   0.3841480
   0.5048187   0.7911695   0.5439053   0.0566731  -0.1355332   0.3911118
  -0.0383039   0.1816059   0.1612904   0.6902348  -0.0221259   0.5230777
  -0.0448231   1.5975279  -1.4498310   0.1978351   0.0709151  -0.0210292
  -1.9260951  -0.0235519  -0.5766334   0.4031320   0.6668795  -0.6016570
   0.3617526   0.0462731  -0.3035024   0.1907307  -0.5696275   0.3884787
  -0.7137300   0.0728789  -0.9502888  -0.0689177  -0.1796223  -0.0744787
  -0.3963798  -0.0695323   0.8720850   0.5392851  -0.5037930  -0.2193547
  -0.3755433  -0.4196315  -0.3975604   0.3283907  -0.3558907  -1.3955449
   0.6761684  -0.1978866   1.4671245   0.0602488  -0.0508829  -0.1087336
   0.8365207   0.3235901   2.1159399  -0.3434464   0.6240554  -0.4570433
  -0.3572657  -0.0019427   0.2571680   0.2514975  -0.0295796  -0.1241983
  -0.3749156  -0.7043112  -0.7261871   0.0960528  -0.0143934  -0.1527638
  -0.7069623   0.0697457   0.7907357   0.2388678   0.4486041   0.1561248
  -0.0404461  -0.1270404  -0.1023958   0.8191362   0.4764412  -0.2369057
  -0.4545496  -0.4711124  -0.5753658  -0.0232591   0.2774759  -0.0718555
   2.3262587  -1.1847857   1.5639743   0.5464218   0.1664247  -0.2859868
  -0.1255467  -0.1543494   0.2176625  -0.2881106  -1.1646582   0.2758957
   0.1185467  -0.3490746  -0.2651133   0.0393741  -0.2155198  -0.3285931
   1.4164437  -0.6780359   0.0672382  -1.0386782  -0.1724250   0.1014523
  -0.5131105  -0.0503814  -0.1924947   0.1822011   0.4487228  -1.0620611
   0.1968296   0.6922919  -0.9404453   0.1247887   0.3862555   0.0075091
   0.6229697  -0.4920105   0.1064199   1.0607036  -1.8106349  -0.3532446
   0.0986745   0.0315473   0.2841130  -0.8616104  -0.7050765   0.4250619
  -0.8328669   0.3427920  -0.4363748   0.1303734   0.0411673   0.0441742
   0.5321429   0.4557483   0.7579230   0.0153135   0.9438041  -0.5726049
   0.1605008   0.1736529   0.1657835   0.7142928   1.5275083  -1.8386537
  -1.8147743   0.8862888   0.6721179  -0.0642425   0.0570750  -0.1899350
  -1.0895189  -0.4168150  -0.6401439   0.0520428  -1.0276915  -0.4618807
   0.2625799  -0.4030879  -0.1705128   1.1296762   0.6579160  -0.7383976
  -0.3910490  -0.7702830   0.4565263  -0.0225675  -0.0905320  -0.2605851
  -1.2921836  -0.4876496   1.0213289   1.4871546   2.1538620  -0.1253638
  -0.1164967   0.2749053  -0.0406358   1.5663365   0.0632301   0.3440987
   0.1013812   0.3142965  -0.1500925  -0.4101889  -0.1359510  -0.1391793
   0.7792705  -0.6263092  -0.2618398  -1.2052287   0.0227977  -0.9367138
  -0.0256417  -0.0367999  -0.2167230   1.2945845  -0.5164795   0.9020427
  -0.7220773   2.6810377  -0.5344774  -0.0810075  -0.0933386  -0.5838579
  -0.6780973  -0.2460146   0.5256468  -0.8344287   0.6035033   0.6790559
  -0.0385357  -0.1791842  -0.0808671   1.2613106   0.3164771  -0.0958403
  -0.0229154   0.7615378   0.2011967  -0.0882544  -0.3125204   0.4925801
   0.6700584  -1.0715163  -0.8588437   0.2505695  -1.1007209   0.4439434
  -0.1229948  -0.2293185  -0.0194041  -0.0520701  -0.4356541  -0.8783905
   0.7804172  -0.5990819   1.5062613  -0.3319955   0.1331465  -0.2162940
  -2.1634536   0.5763416  -0.7805335   0.2427168   1.2915882   0.7754723
  -0.2265710  -0.0811617  -0.1438434  -0.4225990   0.5566090  -0.9397073
   1.4207370  -1.9575524   1.1849941   0.3337618  -0.0095424   0.0238418
   0.0649761   0.4892400   1.2983444   1.3169842   0.2094833   0.0423248
   0.3120054  -0.1553362   0.1970775  -1.1345369   0.4793367   2.3396106
  -0.0029805   0.9321009  -0.1508895  -0.4056904  -0.1335002   0.0437649
  -0.3490076   2.1700068   0.1663504   1.4058628   1.1090722   0.1698345
   0.1683427  -0.2763198  -0.1616649   0.1415946   0.1648607  -0.3714772
   0.2014679   1.2203712  -0.7455832   0.0986080  -0.1375647  -0.2949675
  -0.6112998  -0.0866460  -0.0566715   0.2215598   0.9578672  -0.0338262
   0.0150307  -0.0526919   0.0312263  -0.1262260   1.0123489  -0.4227529
   0.0531051   0.6506540   0.5140652  -0.1867146   0.0747555   0.2072076
  -1.2162690  -0.1361851   0.1648274   0.2738256  -0.5488734   1.0480037
   0.2752295  -0.2367380   0.3201742  -1.0889266   1.7870044  -0.7547704
  -0.5513521  -0.2514712  -0.4704544  -0.1751036   0.1189930  -0.1086845
   0.0348135  -1.1632518   0.5351333  -0.0164719   1.0494479   1.2350608
   0.1352020   0.1370547   0.0222499   0.4084891  -1.1315771  -0.7635289
   1.2500589  -0.1696089   0.0204095  -0.2175673   0.4249040   0.2109452
  -0.1051466  -0.9294977   0.0897025  -0.6277704   0.7847766  -0.5926902
   0.0995618  -0.1877600   0.0837822  -1.2128768  -0.4507850   0.2858281
  -1.5083126   0.0178743   1.3262845  -0.2134069  -0.1990853   0.1833621
  -0.4540953  -0.4993568   0.2436901  -0.3686794  -0.9053741  -0.4936802
  -0.0867526  -0.3923664   0.1835789   0.8139786   0.9845636   0.8122923
   1.2245078   1.2857133  -0.8999070   0.3387307  -0.2918632   0.1626514
   0.6763605  -2.0336852  -1.1624874  -1.0738574   0.1211744   0.4657947
   0.0384022   0.0795622   0.2061416   0.3951541   0.1164815  -0.2851744
  -0.0668751  -0.6570603   1.9779114  -0.0263816   0.0456527   0.4844936
   0.7636287   0.6279724   0.3229874  -0.2244737  -0.0355974   0.3355113
  -0.1523972   0.2659560   0.4680173  -0.9240859  -1.0804447   0.3214201
   2.6897357  -0.3015436   0.5170760  -0.2720823   0.0964611   0.1212842
   0.4758567  -0.3162180  -0.5892534   0.6720044   0.3635216  -0.1196783
  -0.2373060   0.0310134  -0.1095334  -0.7042309  -0.6761881   0.9417098
  -0.6956031   0.3525652  -1.3254160   0.1399485  -0.2541754   0.0529410
   0.4749877   0.1312565   0.3515491   0.3674477   1.9000812  -0.0216579
  -0.1073705  -0.2546532   0.1986257   1.6989286   1.0690955  -0.6177275
  -0.4914238  -1.3461580   1.5945013   0.1411062   0.2611992   0.1381258
   0.5225810  -0.0847074  -0.5370283   1.6227874   0.0759464   1.1053048
  -0.0313350  -0.0025173  -0.4192888  -0.4021964  -1.1021416   0.2156529
   0.0599696  -0.0613624  -0.6112620  -0.2035471   0.1299576   0.0233380
   0.9674537   0.6422830  -0.8157272  -0.6556838   0.0281986   0.6834271
  -0.0794674   0.0417399  -0.2741046   0.1775105   0.2038551   0.1691184
  -0.0094451   0.2872424   0.5272690   0.0948447  -0.0008507   0.1116188
  -1.0348525   0.1601934   0.8856851  -0.9917542  -0.6720654   0.0320138
  -0.2034006  -0.1732606   0.3152194  -0.5998224  -0.9710979  -0.0514868
  -0.1330545  -0.4024789   0.0379104   0.0941507   0.1813264   0.0474703
  -1.0638013   0.5719047   1.1712456   0.7547399  -0.2715710   0.5800104
   0.1221037  -0.0084572  -0.1833317  -0.8827335  -1.9482806  -0.7946137
   0.5145849  -0.4612560  -0.3343223   0.1102047  -0.1157695  -0.0232884
  -0.3142007   0.0877706  -1.9163108   0.1541368  -0.3484037  -0.3711237
   0.0063044  -0.0716670   0.0727962  -0.1891049   0.2081538   1.2113785
  -0.1850949  -0.7769812  -0.9856806   0.2766194   0.1173658   0.2761658
  -1.6029185  -0.8268573  -0.8594431  -0.4020872  -0.7693336   2.0406902
   0.2585066   0.0301027  -0.1463800  -0.9412934   0.8473286  -0.4512227
  -0.9721085  -1.1056596  -0.9941479  -0.0487056   0.0489561  -0.3875535
  -0.9983217  -0.8159324  -0.8546248   0.5750172   0.3742354  -0.2817886
  -0.0869418   0.0680196   0.0869384  -0.0269526   0.2999763  -0.7746040
  -0.1208682  -0.2241443  -0.4006525   0.0603095  -0.1682874   0.1058374
  -0.9912875   2.1308801  -0.4616191   0.2541049   1.2291142  -0.7824807
   0.4531448  -0.0398780  -0.1292528   0.6976377   1.0509614   0.4763326
  -2.3117137  -0.1362539   0.4981739   0.2963400   0.1222276  -0.2192989
  -0.2691597  -0.1784286   0.7931212  -0.3918301   0.2985870   0.4199139
  -0.1863690   0.0040756  -0.1474453  -0.0400024   1.1627612  -0.7546827
  -0.8635090  -0.6807840  -0.8886893  -0.0588918   0.0340088  -0.2627310
   0.6916596  -0.5303804  -1.0626851  -0.2724183   0.5384341   0.8143001
  -0.5143783   0.0889955   0.0201884  -1.4937416   0.4961907   0.0612422
   0.7543424   0.3655619   0.7957096   0.0020635   0.1662561  -0.0023019
   0.5603831  -1.0479691   0.0553872  -0.9685469   0.1304072   1.2170494
  -0.0770108  -0.0884896  -0.1282316   0.0512222   0.0758525  -0.3502983
  -1.7758349   1.0441571  -0.0075858  -0.0547662  -0.0774068  -0.2513333
   0.3476736   0.4287995  -0.3492752   0.9494416   0.5042882  -0.0030951
  -0.0315643   0.1902524  -0.0539021   0.2965651  -1.0565783  -0.4589263
   1.2178199  -0.0442840   0.4072005  -0.0757216   0.3273505   0.1111281
  -0.2852402   0.1621778  -0.5678749  -0.2651642  -0.6943634  -1.5555054
   0.0112061   0.3519169  -0.0747786  -0.8871748  -0.8938714   0.2334324
  -0.4986641  -0.3295556   0.7816075   0.0846045   0.1712478   0.1483984
  -0.3706098  -0.0518930   0.6289219   0.7225442  -1.2474385  -0.2901589
   0.1879982   0.0802992  -0.1196203  -0.3245246  -0.1586910   0.3978535
   0.1354683   0.8594178   0.0755665  -0.2184732  -0.3392409   0.2120154
   1.0365175   0.3157541   0.7710120   1.6061494  -0.5066781   1.0905095
   0.1083229   0.0460828  -0.1908952   0.4696009   1.3968709  -0.4850967
  -0.7494457  -0.5817859  -0.1894295   0.0771766   0.0870675  -0.2392898
  -0.9818681  -1.4719834  -0.5842551  -0.0527991  -0.0658260  -0.8956688
  -0.1635215   0.0757259  -0.2503318   0.5792434   1.4806036  -0.4820789
   0.6478447   0.2753983   0.8084717   0.2650619   0.1965637   0.0994173
  -0.5088079   0.5214712   0.5804954  -0.3363703   1.7523221   0.7993982
  -0.1090042   0.1553698   0.0545721  -0.2434583  -1.3480935  -0.0882933
  -0.7479931   0.1288153   1.0084374  -0.1183654  -0.0019493  -0.6261982
   0.8287023  -0.9480330   0.7968563   0.8707047   0.5568899  -0.0835369
   0.3438466  -0.1561671  -0.0567817   0.2036770   1.3153375   0.1933595
   0.8569970   1.4200267  -0.5084582  -0.3127287  -0.0254334   0.1512559
   0.5563870   0.6112782  -0.3317789  -0.4130354  -1.5405220   1.2956209
  -0.3887649  -0.0168111   0.1606566   0.1519722  -0.4576504  -0.4126681
   0.5377211  -0.9642071  -1.4746172   0.4101629  -0.0438990   0.3886317
  -0.6580750  -0.2509940   0.4763730   0.6473209   0.0440227   0.3983961
   0.1570559  -0.2532622   0.0852921   0.0031659   0.8187088  -0.5678213
  -0.9348812  -0.1175404   0.1080034   0.1017244  -0.0535844   0.4613463
  -0.2722760   1.3117422   0.9948349  -0.5032189  -0.5607035   0.0371432
   0.1883613   0.1930202   0.0587345  -0.2758352   0.2846194   0.9117688
   0.2897694  -0.4694552   0.2303537  -0.2752802   0.1908032   0.2088168
   0.9509491  -1.4994612  -1.2826612  -0.5936813  -1.7180991  -0.4837735
  -0.1433676   0.1602561   0.2030650   0.9326004   0.3329146   0.0518758
   0.4888995  -0.4205171   0.5248023   0.1278040  -0.1423711   0.2787061
  -0.2213526   0.6683660  -0.0521342   0.7707559   1.5787607  -1.4122337
   0.1622003  -0.0946182  -0.0326100  -0.2851993   0.9384456   0.0573830
  -0.2867526  -0.7139314   0.9596901  -0.1764280   0.0232691   0.1868410
   2.8877063  -0.9972770   0.2022012  -0.7282790   0.1495721   0.3711040
   0.1592672   0.0729473  -0.1062486   0.2112702  -0.5279179   1.1159314
  -0.7153481  -0.1669156   0.3955111   0.1986220  -0.1406258  -0.1211899
   1.1991560   0.1958484  -0.0515699  -0.4231791   0.2908489   0.2033954
  -0.2211254   0.1993664   0.2788099  -0.2338141  -0.5468546   0.6640760
   0.5202045   0.3212454  -0.6909160   0.1643882  -0.0518087   0.1394046
  -0.0275212   0.8283356   1.1800311  -0.6208954  -0.5728805   0.2144116
  -0.0335063  -0.0433816  -0.0374093  -0.3914219   1.2434201   0.5906412
  -1.1242323  -0.5974792  -1.4636554   0.1761551  -0.0992764  -0.3337409
   0.4492855   0.7938689   0.1175790   0.0692063  -0.9758672   0.3498679
   0.0242141  -0.0715740  -0.1506822  -0.4778020   0.0337882   0.3553768
   0.8740589   0.2971704  -0.2979570   0.1282835   0.2115995   0.2739807
  -0.3480194   0.1690223  -0.8517131   0.5895879  -0.2747852   0.1345515
  -0.1824691  -0.1272310  -0.3718061  -0.7088669   1.7810935   1.9984621
   1.1675811   0.8821396  -2.8190486   0.1094626   0.4044305   0.1436386
  -0.6735511   1.2382030   0.0471803  -0.3915820  -0.7303573  -0.9909188
   0.0812107  -0.0555604   0.1439083   0.2590156  -1.0167782  -1.0328902
   0.0699496  -0.6793655   1.3130004   0.0226302  -0.0642492  -0.0087225
   0.7905694   0.7784900   0.2810004  -0.1451591  -0.1280574  -0.3994236
   0.0682736   0.0440588  -0.1222429  -0.1578846   0.4043196  -0.4284979
   0.8414823   0.6018049  -0.0844314   0.3760289   0.0753767   0.0379241
   0.2394323   0.7616125   0.1737980   0.2916641  -0.5767890   0.6915505
  -0.0596309   0.2778490  -0.1842518   0.5859993  -0.3864631  -0.2194622
   1.2338830   0.2760161   0.8764501   0.2261756  -0.3271285   0.1776774
   0.2116598   1.2343351  -0.4561676  -0.5809634  -0.6854159   0.2658570
  -0.1191808  -0.0925510   0.3629629  -0.1877542   0.9589530  -1.5283754
  -1.3511517   0.6486806   1.4046341  -0.2409721   0.1973853  -0.0255837
  -0.3252386  -0.6970423  -0.1281518   0.3499030   0.4432994   0.4848832
  -0.2112370  -0.0071028  -0.1190736  -0.0836883   0.2796890  -0.0522455
  -0.5436906   0.0287355   0.6843553   0.0082961  -0.0908844   0.1128386
  -0.4202833   0.7791084  -0.7135967   2.4300132  -0.2973436   0.2929271
  -0.3391589   0.1454457  -0.0384458  -0.2538877  -0.3099444   0.4494602
   1.1419250   0.3721505   0.6307044  -0.0068571  -0.1434341   0.0264135
   1.0256127  -0.3600963   0.2524098   0.3080948   0.8353484   1.7757150
  -0.2126885  -0.1977923  -0.2564760   0.0957184  -0.2625194   1.2118351
   0.7437397   0.5496593  -1.1761398   0.1030164   0.2336806  -0.2151718
   0.4376733   0.3153462  -0.3324560  -0.2535961   0.8767379   0.9425489
   0.3390532  -0.1237804   0.4113424  -0.0183698  -0.7600028  -0.8779904
  -2.1523883  -0.1368478  -0.6140271  -0.2180003  -0.1520678   0.3694424
  -0.0584334   0.7830165  -0.1067316   0.1816577   0.7710379  -0.9657397
  -0.3160715   0.0786168  -0.1834010   0.3304203   0.0604662   1.7712629
   0.8580406   1.4885927  -1.6201718   0.0320735  -0.1131326   0.0704737
  -0.3487661   0.1068279   0.1115163  -1.0754918   0.1445523   1.0470645
   0.2709011  -0.1585278  -0.1878078  -1.4863001  -0.1207630  -0.2285439
   0.2250388   1.2246741  -1.0319550  -0.3116537   0.0175511  -0.3883620
   2.4501979  -0.9610849   0.8490024  -0.3141836   1.1946455  -0.7420226
   0.0939069  -0.4746634   0.1634498   0.1221241   0.3483687   0.6907193
   0.7833474   1.9854863  -1.2488242   0.0683317   0.4129935   0.3491609
   0.0730149   0.3337570  -0.4659483  -0.2657537  -0.1404675  -0.3309181
   0.4292322   0.1000599   0.2677115   0.1111054   0.1763225   0.1562268
  -0.5779883   0.8669913  -1.4696829   0.0099698   0.0270676   0.0985806
   1.0416048   0.6014009   0.9221148  -0.2582521   0.7140102   1.7220972
   0.2493813  -0.1517029   0.3886336   0.9999846  -0.4508786  -1.1599238
  -0.0625192  -0.8347937   0.0155768   0.6210672  -0.3025447  -0.0361595
  -1.7927210  -0.4741009  -1.4658899   0.0455886   0.7847608  -0.9478534
  -0.1783269   0.3851025  -0.1335546  -0.9688434   0.9117714   0.3975554
  -0.4237183  -0.0643653   1.4322417   0.0340114   0.1220841  -0.1084632
  -0.4515931   0.8889591   0.3468533   0.2932986   0.7136221   0.7449293
   0.1367276  -0.1240183   0.0467211  -0.0714156  -0.7143935  -1.0562067
  -1.2002684   0.5782474   0.4657153   0.1834094  -0.0386896   0.2164288
   0.6004264   1.9438902  -1.2064553  -0.0163345  -0.1661990   0.5123847
  -0.5268551  -0.1336143   0.2304966   0.6102439  -0.0031234   0.4856330
   0.3823162   0.7096148   1.2058736  -0.1079874  -0.1432154   0.4506767
  -0.4433967   0.1576775   1.0361531   1.2981210   0.1928583   0.2111985
  -0.1128773   0.1200287  -0.0148138   0.8231151  -0.5344883  -0.8294616
  -1.0153561   0.0228824  -0.5119457   0.0738718   0.2837168  -0.0754640
  -0.0768092   0.1980907  -0.1279788  -0.2658063  -0.0500737   0.3481566
   0.0069762  -0.1208275  -0.0172805  -0.5032799  -0.2357781  -0.7917275
   0.5363923  -0.0533537  -1.8381895   0.2221823   0.1106172  -0.3261239
  -1.5206218  -0.6868582   1.9896100   1.2032354   0.2914739   0.3354453
  -0.0049099  -0.0051442   0.2182408   0.7450429  -0.3778776  -0.1175121
  -0.3767877  -0.2474528   0.0848678  -0.1022569   0.1912144   0.0501713
  -0.9172785  -0.0742487   1.2478460  -1.2338871   0.3760015   0.7753493
   0.0328682   0.0834282  -0.1053088   0.4622917  -0.2393640   0.1436015
   0.4315794   1.3750298  -0.1550656   0.2757992  -0.0182832  -0.0345995
  -0.4281975  -0.5102159  -0.3327927   1.7250090   1.4681505   0.7008698
  -0.1058766  -0.0515627   0.2989963  -0.2761783  -0.1957600  -0.6313596
  -1.7588429   0.2434395  -1.2186259   0.0413116   0.1235693  -0.0649645
  -0.6699718   0.0005663  -1.8934305  -0.1753257   0.3954627  -0.5725614
   0.0098585  -0.1315226  -0.0059640  -1.0671195   0.4952803  -0.0684761
   0.2103212  -2.6267483   0.1514251  -0.1638773  -0.0483816   0.1528636
   1.3325394  -1.5091134   0.1565759   0.4996455   0.6794664  -0.0305820
  -0.3338135  -0.0911203   0.2094970  -0.5741867  -0.6789465   0.3351789
   1.1342864   0.9718570   0.4122328   0.0459651  -0.0211897  -0.1599359
  -0.6610353   0.5684474   1.5347440  -0.3317022   0.9422341  -0.1859656
  -0.3460397  -0.0990261  -0.1618932   0.9869020  -0.6314306   0.5867230
  -1.0242919  -0.3910507   0.0613976   0.0517166  -0.0588309  -0.0543809
   0.6891412  -0.4448596   0.1275173   0.0128169  -1.4568007  -0.0622070
   0.0556355  -0.0931058  -0.0782265  -2.0593131  -0.3789862  -1.5717479
  -0.0109433   0.4053813   0.7471173   0.2241978   0.0431087   0.3465365
  -0.3618034   0.6254411  -1.3141484  -0.6518838  -0.7990917  -0.2465090
  -0.1078470  -0.2119014   0.1117864   0.1058959   1.1483639  -0.3142209
   0.5702910  -0.8326417   0.4200750  -0.0684191   0.0926746  -0.1716089
   1.1280532   1.8452455   0.1474007   0.1393680  -0.2659146  -1.7608342
   0.1911692  -0.3406733   0.0406922   0.2627548  -0.7882976   0.1016296
   0.0761378  -2.2159815  -0.4217991   0.1337835   0.1974710   0.1826239
   0.9473814   0.4699455  -0.5979612  -0.1079717  -0.0900909   0.8316404
   0.0480420  -0.1310906  -0.1576749  -0.0328816  -0.1120381  -0.6127681
   0.4414984   1.3473680  -0.1520980  -0.3322077  -0.0263994  -0.1123146
   0.0342055  -0.5432195  -0.8970003   0.2985195   0.9588979   0.2674164
   0.0933093  -0.0972341   0.0212009  -0.3442421  -1.8163654  -0.4680250
   0.3728014   0.3741320  -0.7902847  -0.2597396   0.0903023   0.1152230
   0.7996752   0.7740286   0.1262122  -1.6909124   0.9690739   0.8038433
  -0.2814414  -0.3115270  -0.1750998   0.0937309  -1.0798670   1.4079255
  -0.2232747  -1.1582944  -0.0129282   0.0007267  -0.1500133  -0.0663871
   0.3275814  -0.2189140  -0.5456243  -0.9228014  -1.4104502  -0.3368500
  -0.2558949  -0.1289451   0.0676117  -0.6015425   0.8842835   1.9140319
   0.5482526  -0.3258914   0.8050858  -0.0211106   0.2037808   0.3248647
  -0.3021792  -0.7448493   0.3362979   0.2547063   0.2242422   0.5943148
  -0.0269935   0.0610769  -0.0942230  -0.3336091   0.1736934  -0.6889228
   0.0180715   1.3985091   0.8531579   0.3088788   0.1642021   0.1132445
  -1.3700467   1.6404459  -0.2445518  -0.6510687  -0.3704072  -1.7141031
   0.1459634  -0.0452104   0.0446796  -1.4603828   0.1626754   0.3697396
   0.7436488  -0.1531129   0.4321073   0.1960884   0.0462748   0.3498462
   0.2617805  -0.3409209   0.5555807   0.2893377  -0.2792762   1.3296068
  -0.0185518   0.0299868   0.0597699  -0.7137617  -0.1474025   0.3627009
  -0.0732224  -0.0509196   0.3306715   0.2975733  -0.2614212  -0.1273374
  -0.1317708  -0.6389285   0.6617971   1.3179692  -1.1168818  -0.5942968
  -0.1303708  -0.0707100   0.1108417  -0.4092155  -1.0212302   0.0717966
  -1.2793381  -0.6784017   0.3557815   0.0251447  -0.1448571  -0.1897528
   0.2506621   0.4036277   0.5377253   0.6890578  -0.3652938   0.5581247
   0.0566714  -0.2978403  -0.0059515   0.0621835  -0.8948240   2.1677210
  -0.6942952   0.3987800  -0.4695539   0.2706479  -0.0950470   0.1532092
   0.2687230  -0.2151629   0.9658782  -0.2410445  -0.8765404   0.2248388
   0.0555039  -0.0566579   0.1611445  -1.0149134  -0.7550488   1.0385771
  -0.2176785   1.4160537  -0.4068251   0.3035407   0.3294634  -0.0816947
  -0.4261358  -0.1729532  -1.4016789   0.4705341  -0.2344112   0.6194204
   0.0473361  -0.2527981  -0.1608665   0.4870797   1.0568572   1.0285591
   0.2174618  -2.0593815   0.4560490  -0.3061332   0.2766412   0.0447613
   0.0644192   1.3247889   2.0131180  -2.1455159  -1.4761466   0.2341980
  -0.0295611  -0.0805841   0.0751056   0.1023887   1.3048171   0.5575857
  -0.0451862  -0.9679648  -0.0734641   0.2192370  -0.0630444  -0.0836383
   0.4646980   1.7141030  -0.2685682  -1.0621299  -0.4628936   1.1131436
  -0.0055718  -0.0338799  -0.0140484  -0.3267214   0.2343525   1.0765080
  -0.2844216   1.6447974  -1.0300612   0.1421042   0.0182195  -0.2315347
  -0.2360544  -0.4430158   1.1261567  -0.0533960  -0.5944115  -0.4365555
  -0.1070999  -0.1350179  -0.3696689  -0.3416001  -0.7472832   0.3975620
   0.9024816  -0.6453875  -0.3779963   0.0340290   0.0227010  -0.1177338
   0.9256974   0.9686393  -1.2456396  -1.5930735   1.2346222  -0.0663995
  -0.1921346  -0.0989415   0.2973932  -1.2868242  -0.1966359  -0.4465410
  -1.4671229   0.7701508   0.2297233   0.0546285   0.2367788  -0.1168781
  -1.0126629  -0.5054500  -1.5517873   1.0437022  -0.0927034  -0.0295052
   0.0288005   0.1920773   0.0952243   0.6326168  -0.1830611  -0.0027840
  -1.2294515   1.7188184   0.7267905  -0.0569439   0.1844269   0.0623730
   0.5225142   0.9670262  -1.3174647  -0.1718329  -0.6770089   0.6533396
   0.3127188   0.1080366   0.1092777   0.0974807  -0.5046146   0.7720088
   0.5284064  -0.9918363   0.3193069   0.0484578  -0.1824471   0.1623413
  -0.0240207   0.6912937   0.7547585  -0.2764854  -1.1859707   1.3299807
  -0.1522058  -0.1830826  -0.1618210   0.9762947  -0.2927672  -1.0728279
   1.0858613  -0.8665900  -0.6006390  -0.0056599   0.1028041   0.2480426
  -0.2572998   0.7861326  -2.0716572   0.3156839  -0.3015645   0.3897716
  -0.0661334   0.0656215   0.4482105  -0.2207122  -0.2627870   0.6278403
   0.1032910  -1.2526158   1.7873315   0.0017169   0.0634807  -0.2106338
  -1.6565871  -0.8220564   0.8198041  -1.2479436   0.8141141  -0.2606243
   0.0422916  -0.1769964  -0.1398877  -0.4922078  -0.5934966  -0.8263610
  -1.0653442   0.6685561  -0.8523403   0.0006623   0.2814437   0.0258339
  -0.7018843  -0.5279040   0.8636457  -0.4062859   0.8335409  -0.1755537
   0.2130135   0.1073017  -0.0900711   0.5318993  -0.5797293  -0.3846002
  -0.2477081  -0.0712589   0.2459393  -0.0092730  -0.2318494  -0.1316783
  -0.4823318  -0.9996005  -0.3989261  -0.0148163   0.8565681  -0.7086615
   0.2136040   0.0568970   0.0615976  -0.6063675   1.5978613   0.1414989
   0.4819241   0.1317778  -0.4028993  -0.1569727  -0.0802914   0.1401212
  -0.1451870   0.1051071  -1.2087970  -0.9976220   0.0793601  -0.5555333
   0.0113348   0.0548878  -0.0889798  -0.0775281   1.3518813  -0.3589579
  -0.4704541   1.1269343  -0.1348039   0.2054023   0.2702680   0.2354069
   1.8710909   0.8165537  -1.3720436  -0.4204550   0.0151106  -0.2732448
   0.3069482  -0.1023835  -0.2364058  -1.0442016   0.7428073   0.2545782
   0.0094280  -2.1059034   0.0034128   0.0539412  -0.0052529   0.1652677
  -0.4613465   0.8368733  -0.0963063   0.0892067  -1.2508620  -0.0232080
  -0.2410551  -0.1373525  -0.1024154   0.5717196   0.4198113  -0.5999994
   0.9693355  -0.2525831  -0.1375259   0.1314599   0.3871130  -0.1202047
  -0.8822127   1.4721398  -1.3643219  -0.6027387  -0.1793666  -0.1434276
  -0.2672108   0.0031645  -0.0226623  -0.5851987  -0.3183312  -0.4546047
  -1.8577945   0.6340699   1.5298562  -0.1848549   0.1403107   0.2096380
   0.0903123  -0.1589541  -1.3104655   0.5149252  -0.9875727  -0.2065419
   0.3413046  -0.3348005   0.0336089  -1.8980378   0.2520906   0.8904790
  -0.1231681  -0.6090254  -1.1002328   0.1716065   0.1050263  -0.0977511
  -0.4339700  -0.6390638   0.5277731   1.3180627   0.4826406   0.2995254
   0.0296822  -0.0035395  -0.0160073   0.2703552  -0.5662475   1.7416202
  -0.6455339   0.4905092  -0.7734687   0.4551762   0.0594461   0.0179959
  -1.8407427  -0.1417772  -0.2785204  -0.2218338   0.6455139  -0.5749365
  -0.1258307  -0.2493536  -0.0412703   1.8987405  -0.7227620  -0.8046471
  -1.7475322   0.3391216  -1.1444799  -0.0212361   0.1235975  -0.3232490
  -1.0951285   1.3173698   0.3687629  -1.1006836  -0.1951966   1.2960482
  -0.1521940   0.3927829  -0.0684739   0.1455376   0.2653211   0.9843369
  -1.0182686  -0.4677104  -0.8872888  -0.2261847  -0.0865902   0.0411434
   0.1356014  -1.5491500   1.7908113  -0.1728151   0.2947521  -0.1636622
  -0.3456530   0.1606557   0.5540869   0.0231376  -1.0833272  -0.7632771
  -0.5657982   1.4385544   0.6037260  -0.0045176  -0.4354562  -0.2759868
   0.2712875  -0.2499420  -0.0019131   0.6897763   0.5131205  -0.1091337
  -0.0307413   0.2557930  -0.1597127   1.7605952   1.0117736   1.5042915
   0.5718532   0.2329170  -0.3251101   0.1979572   0.3117488   0.4048928
   1.0159205  -0.3658564   0.2177004  -0.7634774   0.9969295  -0.4373835
  -0.0330508  -0.0137739   0.1888189   0.4497398   0.4689551  -0.1511940
   0.1954243   0.8864660  -1.3315134   0.1634103  -0.0272854   0.0176270
  -0.1075216   1.0430343  -1.2649273  -0.3118234   1.3338593   2.3673284
  -0.2271632  -0.0446981   0.3131527   1.2270631   2.3892508   0.2504913
  -2.0111229  -1.7379649   0.1104226  -0.0142138  -0.0771328  -0.0764508
   1.0993012  -0.4285966   0.2116611  -1.3726703   1.0671588  -0.8253165
  -0.0231629  -0.0094326  -0.0099995  -1.0873805   0.9743173  -1.2215698
   0.9937804  -0.3603939   0.3321030  -0.0603354   0.0184776  -0.1643559
   0.4019761  -0.1664834  -0.7066951   1.1705599  -0.4255863  -0.9765449
   0.1655250  -0.1675596   0.1740290   0.8640928   0.7587147   0.6887208
  -0.3530186  -0.4196811  -1.6389059  -0.1906513  -0.0496878  -0.0112615
   1.2665572   1.0051838   2.9014580  -1.0207158   2.0903778  -0.9927405
   0.3690425   0.1220300   0.2543609  -1.0067638   0.5840596  -0.7150558
  -0.2626344  -0.2121175  -0.2311618   0.1138618   0.1816464   0.0184933
  -0.7473712  -0.4625388  -0.3492657   0.1365703  -0.2060446   0.7493253
   0.1812183  -0.2224103   0.0697902  -0.0988814   1.0153303   0.6359047
   0.6357135   0.7200730   0.6117865   0.2137988   0.2145001   0.1690374
   0.3645504  -0.6991100   0.6500652  -0.4937904  -0.4416685  -0.5495686
  -0.0526968   0.0036324   0.1264775   2.0482447  -0.7482436  -0.3858649
  -0.4366009  -1.2144554   0.1008047  -0.1789387  -0.1137520  -0.1988529
  -1.5547662  -0.5238328  -0.5161165   0.6761395   1.2381791   1.2518221
   0.0379549   0.1847797   0.0820958  -0.0996000  -1.5227610  -0.3236580
  -0.2072113  -0.9685042  -0.0508272  -0.2527408  -0.1826556   0.1490543
  -0.6242864   0.4515778  -1.0078735  -0.0836226  -0.5505050   0.6751031
  -0.0430485   0.2291926   0.1535058  -0.7400469  -1.9635786   1.0058761
  -1.2574606   0.8845472   0.3352289  -0.0548294   0.0197421   0.0334997
   0.9190450  -0.1845099  -1.5356659   1.8046287  -1.1295496  -1.3223267
  -0.2024314   0.0685572   0.0114909  -0.2226055   0.1602315   0.5216819
  -0.8880438   0.8496671  -0.8256785   0.1596295   0.0386344   0.0888101
   0.9466408   0.7257448  -0.7330462   0.2719845   0.2054780  -1.0785469
  -0.0969012   0.1851571  -0.2398208   0.1315385   0.1909869   0.2773008
  -0.7906183   0.0303956   0.3241858  -0.1411900   0.3110553   0.1230944
  -0.0290260  -0.0273225  -0.0761996   0.7519621  -0.3003300   0.9393569
   0.2075655  -0.2897508  -0.1741591  -0.2238007   0.3591050  -0.0045239
   1.0579610   0.7905918   1.4724470   0.0998294   0.2033044   0.1070970
   1.5473324   1.1445553   0.2929862   0.0397057   0.3228270   0.8728589
  -0.0688149  -0.0436866   0.0963566  -0.5948128  -0.6584281  -0.3049127
   0.9253671  -0.5839688   0.2816035  -0.0602562  -0.0386581  -0.1919698
  -0.2437327   0.5364198   1.6754465   0.4724233   1.7271073  -1.5394837
  -0.1034673  -0.3164130   0.2413598  -0.9657698   0.9576991   1.0378741
   0.2337562  -1.4114200  -0.4173193  -0.0925237   0.0784884  -0.3162816
   1.5729084  -0.2163173   0.5156937   0.3606783   0.0601785  -1.2386726
  -0.0645586   0.0192877   0.2852232   1.0223504  -0.4072050   0.8839155
  -0.3508683   0.7458961  -0.4558597  -0.1066515  -0.1505933   0.4109358
   0.2794145  -0.1342921  -0.0110511   0.4045578   0.8430333   0.2908039
  -0.1682101  -0.3040791  -0.1335998  -0.6699203   0.4765254   0.6294578
   0.2785405   0.8189248   0.7305520  -0.1147747   0.2999025   0.0629130
  -0.5411722  -0.9620772   1.3973129  -0.2060893  -0.5978858  -0.8542900
   0.2889816  -0.1086092   0.0473436   0.3106436  -0.6207351   0.5919556
   0.2063663  -0.8554521  -0.7596751  -0.1202191   0.3254859  -0.1952619
   0.2320620  -0.1211704   1.5343453   0.4889535  -0.7935832  -0.5329483
  -0.0018479   0.0379987  -0.1646029  -0.2024781   0.0834956  -0.3830462
  -0.1375817  -0.7843155  -0.0663689  -0.0792703   0.2421499  -0.0798758
   0.2020737  -0.3522774  -0.5137706   0.1614691  -0.5989519  -0.8790845
   0.0511190   0.0590898  -0.0753703   0.1216120  -0.6083032  -1.4577658
   0.4991627   0.2169439  -2.5060489   0.1804532   0.1056622  -0.2601193
   0.2182726  -0.1146331   0.4757688   0.4825713  -0.5012870   0.0352231
  -0.2777744  -0.0226633   0.2021442  -1.7087100   0.4141498  -0.8462657
   0.9950631  -1.6077282   1.2647270   0.1268103   0.0482205  -0.1373657
  -0.2310773  -0.8308982   0.3596022   0.3969778   0.2622727  -0.1059492
   0.1215500  -0.2892005   0.0100799   0.9309579   0.7514676  -1.4114989
  -0.9330405  -0.7372195   0.2136157   0.2645994  -0.2527815   0.2090909
  -0.1993619   1.2136469  -0.3683440   0.3811453   0.0066976  -1.1548516
  -0.0891575  -0.0164130  -0.1025828  -0.3700083  -0.0938540  -0.4144803
  -0.4747301   0.2375582  -0.2572147   0.0844140   0.3236408   0.0985761
   0.5308886  -0.6945859  -0.6130252   0.3203933  -0.3802962  -0.1592329
  -0.0906891   0.0436015  -0.2596194  -0.7278638   1.6889294  -1.0843742
  -0.5820256  -0.6645750  -0.3747496  -0.4416596   0.1260020  -0.1061689
   0.2541109   0.4325836  -0.3955859  -0.2894045  -0.0151428  -0.6582670
  -0.0635271   0.0235868   0.1222682   0.8338016  -0.1918264  -0.4174806
   0.4449791   0.6564780  -0.2902574  -0.0241936  -0.2351991  -0.1110731
   0.0324675   0.4131853  -0.9687921   0.0623332  -0.3605843  -0.8600303
   0.0580739   0.0445117  -0.0856610  -0.3322933  -0.1847293  -0.0255818
   0.4550081   0.6830090  -0.2179731   0.0516026   0.3622501  -0.1289304
  -1.0692354  -0.4760298   0.0814666   0.4917010  -0.0245199  -0.8601416
  -0.0472285   0.1233639   0.0461335   0.4887031  -1.3342105  -0.9039036
  -0.0196475  -0.3243872   0.7596150  -0.0824266  -0.3196158  -0.2063756
  -1.0415758  -0.1103638  -0.4693480  -0.5332212  -0.0183891  -0.3443922
   0.0715173   0.2233104  -0.2920396   0.1759774   0.9724742   0.7914551
  -0.0996621   0.1018526  -0.8844249   0.1027674   0.2684282  -0.0599376
   0.4869489   0.5485762   1.2252551   0.3326825  -0.4643866   0.2331954
   0.0866025   0.4608164  -0.0421059  -0.4319946  -0.0116324   0.1136715
  -0.9090456   1.0692379   0.8998190   0.0049030  -0.0274657   0.4343584
  -0.9010805   0.3929743  -0.4712861  -0.8928566  -1.2501315  -0.6408271
  -0.1360248   0.1366933   0.0620845   0.0266936   0.1419178   0.1035680
   0.9991758   1.0785731  -0.1915687  -0.3273023  -0.1320863  -0.3781467
  -0.4515615  -0.0066890   1.8981537  -0.1517259  -0.5550265  -0.0111261
  -0.0431985   0.3201841   0.2673241  -0.3678002  -1.3759611  -0.3327648
   0.6778466  -0.0703922  -0.4199588  -0.2156776   0.0550451  -0.1893175
  -0.2182489   1.3097910  -0.1854261  -0.7662700  -1.8104565  -0.6420434
  -0.1805982   0.1001676   0.1106685  -1.7906675   0.1359394   0.4186487
   0.7816051  -0.1769235   0.0672119  -0.1451987  -0.0658829   0.0645780
  -1.0643734  -0.2744287   0.6888881  -0.0976438   1.2287602  -1.2520176
  -0.0663997   0.1609150  -0.3429106  -1.8477609   0.1870163   1.2865129
   0.7192290   0.5159842  -0.3430462  -0.0609214  -0.1790320  -0.0045238
   0.7206705   1.7565515  -0.3949437   0.6027010  -2.0802791  -0.0353529
  -0.1621798   0.1152732   0.1082102   0.1921922   2.0741172  -0.0025461
   1.6175567   0.1093967   0.5524740   0.0853582  -0.0035529   0.0117145
   0.8643550   0.3105313  -0.0456183   0.2950449  -1.2379245  -0.1427888
   0.0791103  -0.1794032  -0.0739563  -1.6938813   0.9789407   0.6404626
   1.3616529  -0.1098043  -1.0884284  -0.0277146  -0.0289887  -0.3002915
   0.2866804  -0.4186556  -0.3143123  -0.7326331  -0.8365760  -0.2884279
  -0.1030632   0.0692691   0.0018738  -0.8087584  -0.8686705  -0.1058503
  -0.8022997  -1.1369932   0.0079533  -0.0223501  -0.4077841  -0.1924118
  -1.4372001  -0.4809774   1.1911834  -0.1383960  -0.2073687  -0.9138312
  -0.2174299   0.4222778   0.1493694   1.2289379  -1.6722753  -0.0279500
  -0.4596861   0.1155212   0.3474972   0.1034801  -0.0032927  -0.3345405
   0.5398442  -0.5557822  -0.5392212  -0.0435855   0.8938999   0.0707128
   0.1783629  -0.1747006   0.0801023  -0.8406445  -0.1113215   0.5195796
   0.7947325  -0.0372528  -0.3657650  -0.0576827   0.2459016   0.2063426
   0.3878134  -0.6253498   0.1987450   1.8690238   0.3073060   1.6026903
   0.1378145  -0.0520783   0.5076446   1.4341832   0.6373981  -0.6902999
  -0.3119211   0.7908086  -0.2403095  -0.0835447  -0.0341489   0.2261960
   0.8752609  -2.1135561  -0.8037689  -0.1467943   0.8790081   1.4830945
   0.0806705  -0.0644713   0.0076673   0.1727316  -2.4807842   0.4560558
   1.3832934   1.6620715   2.1838670  -0.1760062  -0.0295160   0.0251632
  -0.9524969  -1.4233031   0.9859071   0.5062391  -1.2598385   0.2551904
   0.2260094   0.0350269  -0.1689409  -2.0207102   0.5488662  -1.4569383
   0.5045109  -0.8379134   0.0469834  -0.0026932  -0.0377010  -0.3581846
  -1.1868083  -0.2180020   0.1744930  -0.6385552  -1.4693860   0.2441499
   0.1500199   0.3165540  -0.2182708  -2.1556067  -0.7205890  -0.0531549
  -0.6234725  -1.0800287  -0.2961177  -0.0512315   0.1977109   0.5295122
  -0.0176751   0.2589630  -0.3681197  -0.1882331  -0.6111271   0.2433867
  -0.1531578   0.0157131   0.3659746   0.1883764   0.4308774   0.9895453
  -2.1126916   0.0856858  -0.8501982   0.5024959  -0.0549297   0.2807602
  -1.0243961  -0.5692228   0.0529035  -1.8001511  -0.5306883  -0.1463819
  -0.0485660  -0.1969779  -0.2547680   0.1083439   0.4942316   0.6677896
  -1.0376410   0.4495905  -0.0081422   0.1273349   0.0916660  -0.1761489
  -0.3179767  -0.7528520  -0.3286054   0.6350545  -2.1186345   1.3936881
   0.2593882   0.1044151   0.1227478   0.6263744   0.7616931  -0.5731415
   0.3018103  -0.5458673   0.3944321   0.0597480   0.0153003   0.0629354
   1.6316040   0.6937321  -1.1241448   0.1427135   0.3105655  -0.3129868
  -0.0047609  -0.0411257   0.2328627   0.9648906  -1.4479667  -1.4657983
  -1.3490222  -0.2306786   1.4387919   0.2245647  -0.2720078  -0.1515798
   0.8999656  -0.5358447   0.1963107   0.8067681   0.8831981   0.1805279
   0.0090279  -0.4370624  -0.1309397   0.5915529   1.1177130   2.0728245
   1.0354602  -0.1854087   1.1605778   0.3557088  -0.1976425   0.1019845
  -0.4517272  -0.8586582  -0.1331265  -0.1089149   2.4338737   1.5760076
  -0.0842169  -0.1024143  -0.5355382  -0.8364275  -0.3907186  -0.4723397
  -0.5737976   1.0212077   0.4088526  -0.0375121   0.3304305  -0.1943911
  -0.2671594  -0.9055709   0.1517040  -0.6803824   0.4909655  -0.1407954
   0.0789840   0.1631646  -0.2675104  -0.6953710  -0.2015549  -0.8855343
   0.2122159   0.2351901   0.8805252   0.0354865  -0.0685012  -0.0482511
  -0.1537760   0.0448369  -0.5914284   0.6766090   1.2949576   1.1111437
   0.0065117   0.1025251   0.3350668  -0.0868999   2.2714186  -0.3182674
  -0.9969363  -0.0004525  -0.0823215  -0.2922878   0.0404481  -0.1553331
   0.1728708   0.9292645   0.2701518   0.4416182   0.0418397   0.0904578
  -0.1071317   0.1634208  -0.1662853  -0.1761217   0.3318125  -0.0524325
   0.8022519   0.5784695  -0.9652545  -0.3405512  -0.2432895   0.1493892
  -0.2471650   0.9818470  -0.1174662   0.0923963  -0.5419753   0.8237943
   0.0325292  -0.1192457   0.0089494  -0.0478332  -0.5252231  -0.5953372
   1.1201030   1.5166029  -0.0900508  -0.3106753  -0.0100721   0.0552807
   0.6077308  -0.2068269   0.1195654   0.3984810  -1.4276379  -0.1663069
  -0.3287662  -0.1388742   0.0114956  -0.0829186   0.1408005  -0.5597926
   0.0994217  -0.5752071  -0.6472431  -0.1384923  -0.2024573   0.1675508
  -0.2108799  -0.3938184  -0.9442878  -0.2465896   0.3177382  -0.2038103
   0.3649030   0.1769250  -0.3909065  -0.3553536   0.2889338  -0.8486317
   0.4372001  -0.9677213   1.3754067  -0.2303585  -0.0793506   0.0875136
  -0.6223997  -0.6645222   0.0363604  -2.2854996   1.4434075   0.2340965
  -0.0724926   0.2983030   0.1247751   0.3851546  -0.6604438  -0.8492126
  -0.5494112   1.5086484  -0.1168638  -0.1160248   0.3138014   0.3729949
  -0.9634272  -1.1460685   1.2742355  -0.2171187  -0.1811526  -0.6641615
   0.0441607   0.1840849   0.0575656  -0.5482395   1.6387510  -0.4550548
   0.6583180   0.0191062  -0.4417644  -0.0019603  -0.1820941  -0.0871642
  -0.2120973   0.7138418   0.0352212   0.4942631  -0.0036033  -0.7631306
   0.2000976  -0.1800777   0.1359863   0.3056303   0.0492960   1.1425143
   0.7864850  -0.8280531   0.8558250   0.0378849  -0.2109181  -0.0587878
   1.0117267   0.6381810  -0.1264537  -0.2746150  -0.4746805   0.9206293
  -0.0608784   0.3033301  -0.2570925  -1.8000493  -0.5773653  -1.4822890
   0.5675074  -0.1200544   0.9450774   0.2218957  -0.0123364  -0.0503436
  -0.3588237   0.8260894  -1.1535509   0.6787999  -1.2613789  -0.8646569
  -0.1506013   0.0896107  -0.3175094  -0.7387602  -0.3792865  -0.3091387
  -1.0504756   0.9952661  -1.0217940   0.0417354  -0.2334987   0.0743481
   1.3153456   0.6806387  -0.5632496  -0.1710215  -0.9004245   0.0093492
  -0.0776706   0.0984868   0.2463694  -0.1183728  -0.0205721  -0.7626424
  -0.5029202  -0.2052913   1.4622784   0.0915799   0.0899136   0.0648503
  -1.0867313   0.9624075   0.1865978   1.1393054   0.3093360   1.0175693
  -0.0247121   0.2036438   0.2742691  -0.6354402   0.2629076   1.2571847
   0.6064777   0.1904268   0.1793150   0.1984382  -0.0346701  -0.3717562
  -0.2558311  -0.4319117  -1.3608353   0.2668522   0.7812684   0.2200421
   0.1689133  -0.1179727   0.0632126   0.1612754  -1.0365920  -0.8566607
   0.5221162   0.9522023  -0.6031272   0.1149428  -0.1142828   0.2315835
  -0.8787547  -0.5118672   1.3652768  -0.4846707   0.9557568   1.5853343
   0.1018485  -0.1865881   0.0018822  -0.7779290  -0.2908830  -1.3473105
   0.0799343   1.0019912  -0.4553842   0.3633840  -0.0866426   0.0745032
   0.3542281  -0.1803630   0.6081089   1.2099968  -0.4058707   0.6994131
  -0.0019463  -0.1438346  -0.0915678   0.6686150  -0.1712380   0.5891705
  -0.5051512   0.1079710  -0.0586597  -0.1326299  -0.0464166  -0.2022794
   0.6101378  -0.8306575   0.0698780   0.3556804   1.9443978  -0.5575243
  -0.0893419  -0.2480219  -0.0543016   0.2931649  -1.2418497   0.3016593
   0.8819805  -0.8231719  -0.4822139  -0.1763457   0.0975858   0.3068797
  -0.6396183  -1.2315222   1.5572410  -1.1644906  -1.3865440  -0.1359197
  -0.2423640   0.2627391   0.3290145   1.0606487  -0.8712882  -0.6419963
   0.8137984   0.3430251   0.1771231   0.1702246   0.0873995  -0.0659773
  -0.5121081  -0.5468062  -0.6087669   0.6545267   1.0821549   0.6043279
   0.0859104  -0.0515590   0.1697536  -1.0149256  -0.1214756  -0.3758872
   0.2148127  -0.9559906   1.6815487   0.0341969   0.3435408  -0.0768533
   1.0627298   0.8998973   0.1408967  -0.6797257   0.2412668  -0.8840996
   0.0776389  -0.1144932   0.2474369   1.5133696   0.3110959   1.6755728
  -0.6024942  -0.1885493  -0.1426881   0.1040461   0.0505213  -0.0085552
   0.3708908  -0.0455542   0.9977329  -0.0169564   0.1760375   0.1695528
  -0.0056964   0.0828551   0.2883905  -0.0658522   0.4561979  -0.5574691
  -0.5792028   0.3474862  -0.1518088   0.2832099  -0.2353067   0.3459993
  -1.0945241   0.6948727   1.0339272  -0.1869972   0.1238438  -0.4648446
  -0.1548748  -0.1325792  -0.0042920   0.1149175   0.1299837  -0.0853947
   0.4195628   1.6234462  -0.8476411   0.0463490  -0.0766473  -0.1132178
  -0.4927424   0.2952291   1.8177994  -0.3602667  -0.5695322   0.6710787
  -0.0514859  -0.1352213   0.3252139  -1.2087487   1.2393926   0.2005123
  -0.1671649   0.1762964   0.1195136  -0.2505779   0.0304083  -0.0893158
   0.4518692   0.4967645  -0.2446571   0.5814713  -0.3038683  -1.6856297
   0.0465509   0.1429195  -0.1151247   0.0275473   0.9391386   0.6385815
  -1.0065644  -0.3511664   0.3643798  -0.1284598   0.0367780  -0.2010275
   0.8008466   0.4078481   0.1135385  -0.5786716   0.2075131   0.4385150
   0.1052468  -0.0205370  -0.0183381  -0.8286878  -0.7701403  -0.3073305
  -0.0906117   0.2969050  -1.3944188   0.0394817   0.1815575   0.1265802
  -0.5344691  -0.7612858  -0.1449099  -0.0072435   0.9628976  -0.8787386
  -0.2523661   0.1071618  -0.0266468  -1.5696558   1.9955152   0.2122542
   0.8096514   0.3144830  -1.2554357   0.2768882   0.0496299   0.2352446
  -0.3977042   0.6698393  -0.6676223   0.5687062  -1.0610064  -0.6783085
  -0.1606693  -0.1864749   0.1351164   0.2554648  -0.9766275  -0.2071707
   0.2233465  -0.6228427  -1.6595403   0.1548457  -0.1827453  -0.2328466
   0.0531784  -0.4119974   0.3257917  -0.4670902   0.2693166   0.1412501
   0.0935429  -0.0927233   0.0771062  -1.4373391  -0.3082175  -0.7779930
   0.5792247  -0.6041121  -0.7866299  -0.2547394  -0.0245539  -0.0420177
  -0.5424039  -0.4688221  -1.4622076   0.2820737   0.5329275  -0.0138117
   0.1458751   0.1454253   0.1000810   0.1497770  -0.2492317  -0.8176138
  -0.6712263   0.8977720   0.0213400   0.0326937  -0.0919234  -0.4399535
   0.0864903   1.1403935  -0.3409353   0.0375833   0.7608566   0.1935749
  -0.0567422   0.2477764  -0.1115405   0.1806913  -0.0004376   0.6691969
   0.4622515  -0.0067399   1.9327973   0.0284557   0.2016320  -0.0556954
   0.6561551   0.3121563  -0.5751888   0.4121446   0.8279522  -0.7909628
  -0.0764248  -0.0497188   0.3573291   0.1791003   0.4810618  -1.7873044
  -0.5251875   0.5932223   0.1604931   0.2426278  -0.0764018   0.0304465
  -0.7566308   0.6989861  -0.5405468   0.6212787  -0.1908346  -0.1575604
  -0.2518049   0.0922146  -0.2242699  -0.3477518   1.4991838   0.7632797
   0.6971993  -0.7390686   0.7875867  -0.4032962  -0.0113003  -0.2554990
   0.4524875  -0.8515165  -0.7452056  -0.6739662   1.4097868  -0.1474179
   0.0136729  -0.0803141   0.0980060  -0.4527395  -0.1774325   0.2031415
  -0.4751496  -0.5413060   1.6274090  -0.3489909  -0.0952075  -0.1575294
  -0.6675891   1.5004793   1.3392091   0.1044355   0.4744010  -0.0356776
  -0.0740280  -0.0077388   0.0796367   0.7734755  -0.7598894  -2.2221425
  -1.1974434  -1.1928537  -0.0188487  -0.2873411   0.0096823   0.1119180
  -0.8980097  -0.6280403   0.1578641   1.1444805  -0.2899219  -0.1834679
  -0.4610967  -0.0280777  -0.0561493  -0.4029401   0.3586447  -0.8587018
  -0.2939472  -0.6788364   1.4294649   0.0496984   0.0656775  -0.1570905
   0.9423460   0.6834350   0.6962726  -1.4596508  -0.5407476   0.0161882
  -0.3016615  -0.0173052  -0.1811779  -0.6151692   0.1094629   0.5938956
  -0.6422722  -1.5478132   0.2457713  -0.1951256   0.2975826  -0.1491824
   0.1872144   1.0777996   0.1231801   0.8637068  -0.3443558   0.8816811
  -0.1812940   0.2000535  -0.0603921   0.4282888   0.0021339   1.4291474
   0.6940025   0.0955132  -0.1616723   0.0913131   0.3002324   0.0372587
  -0.2187396   0.4104704  -1.1286989   0.5933433   0.0359206   0.8826475
  -0.1642576  -0.0410576  -0.4306951   2.0196419   1.4536375   0.5156759
  -1.0310662   1.5786275   0.6262430  -0.1562724  -0.2432172  -0.0332746
   0.9529893  -0.4615633  -0.5740358   0.4029274  -0.3742052   0.5501567
  -0.1340751   0.0825807  -0.2695369  -0.5892244  -0.1590042  -0.0021440
   0.4162634   0.7671260   0.8409747   0.0063592   0.1287317   0.0997786
  -0.9649794   0.2189377  -0.5511455  -0.1915348   0.4686646   0.7270154
   0.2115826   0.0463338   0.2615204   0.7389718   0.6308511  -0.5992185
  -0.8299980  -1.4766239  -0.8058320   0.1836104   0.0177518   0.1158912
  -0.2227572  -0.2781904   1.7285222  -0.5233931  -0.6489040  -0.1582850
   0.2520732  -0.0759993  -0.1376810  -1.3255160   0.8099118   0.3927558
  -0.0905805   1.1687204  -0.9392607   0.1364009  -0.1084308  -0.0239328
  -0.6303601  -1.2258703  -0.8397475   1.7101188  -1.2915735   0.5745398
  -0.2921391  -0.1142567   0.0405034  -0.1713480   0.7861857   0.0772851
   0.3921648  -1.0391914   1.1778477  -0.1163386  -0.0323371   0.2756582
   0.4610289  -0.3241950  -0.4272152  -1.4341272  -0.4251445  -1.6468378
   0.2181185  -0.0781207  -0.3465416  -1.1432421   0.1025998  -0.0372693
   1.0050371  -0.0008430  -0.0145304  -0.0915024   0.0619136   0.1156582
   2.0209029   0.6288773  -0.0700453   1.5236363  -1.6071968  -0.6705350
   0.1270583  -0.0802277  -0.3816302   0.5065343   0.2656255   0.2273332
   0.5483391   1.0342284   1.2350672   0.1051233  -0.1941796  -0.1438976
   1.3070728   0.1778293  -0.7112633   0.4790528   0.2534538  -0.4613625
  -0.0017257   0.0397892  -0.4048661   0.6485818  -0.3072724  -0.6389760
   1.0025159   0.7855739  -0.4999883  -0.0211445  -0.2255620  -0.0518663
  -0.1705100  -0.1025475   0.2985653   1.7520998   1.1334106  -0.2968122
   0.1323666  -0.1766484  -0.1120318  -1.1563802   1.2954618   0.7790007
  -0.5686414   0.3888436  -0.4196883  -0.1371724  -0.5352876   0.0334321
  -0.2268031  -1.2708095  -0.4625536   0.0495833   0.1097352  -0.2946708
  -0.1002532  -0.0934295  -0.0565554   0.2800319   0.7393916   0.6236600
  -0.7112988   0.3670244   0.3394956   0.2130953  -0.2066679  -0.0663273
  -0.3287725  -0.3679230  -0.4437156   0.6797854  -0.6886302   1.3567326
   0.2814717   0.2784230  -0.1468112  -1.8055756   0.2467430  -1.3218927
   0.3737908   0.3815021   0.9766762   0.1150781  -0.0989836  -0.1416705
  -0.1434852  -0.3202784   0.0860278   0.5078225   0.8369386  -0.3465301
   0.1962422   0.3094698   0.0211097   0.4649118   0.4620889  -1.3397354
   0.1785687  -0.2500655   0.2963700  -0.2215379   0.3262662   0.0618113
  -0.9444917  -0.1392532  -0.1291703   0.0122183   0.4883164  -0.8357115
  -0.0108728   0.1268282   0.1341631   0.1333222   1.1170994   0.9484916
  -0.2919097  -0.5418379  -0.3122350  -0.1184412  -0.0384132  -0.0762843
  -0.1059944   0.1248505  -0.8571369   0.4013207  -1.1526306  -0.3416260
  -0.3308582   0.1744874   0.0003395   1.2299900  -1.8452032  -0.4893956
  -0.3712234   0.8069412   0.0068112   0.4003044  -0.1978153  -0.0316501
   0.9434245   0.3724137  -0.7004011  -1.2933518   1.0977519   0.0104141
  -0.1397259  -0.0686843  -0.0947541  -0.2431173   0.3306842  -0.2974868
  -1.1347539   1.1640184  -0.4308447  -0.2093576   0.1404072   0.0501068
  -0.2164485  -0.7378825  -0.4649395   0.9765644  -0.9543855  -1.3928754
  -0.0630067   0.1179480   0.0434902   0.9064022   1.2093732  -0.2938547
  -0.0519270  -0.9048389   0.0023646  -0.1835909  -0.3649113   0.2445735
  -0.6432160   1.4269764  -1.6142368  -0.6309013  -0.7847922   0.1557922
   0.0350858   0.0487730   0.0148505   0.6378746   0.3925371   0.7147303
   1.1124146  -0.1744915   0.3556537  -0.0563505   0.1385726  -0.1267320
   1.6958534   0.7092260  -0.6269959  -0.7984307   0.2201030  -0.3168368
  -0.0155459   0.0268988   0.1815498  -0.8756301  -0.4915730  -1.0323373
   0.6325358   0.6270479  -0.3290980   0.1343514  -0.0049122   0.0280258
   0.9938483   0.7243060   0.5204281  -0.5123491  -0.2274586  -0.7114436
   0.2219482   0.0452401   0.0876473  -1.6025820   0.0388968  -0.1815429
   0.8258793   1.0000792   0.1978034  -0.0933788   0.0780850  -0.2931755
  -1.8260276   0.4887964  -0.4065737   0.2934884  -1.1781656  -1.7308340
  -0.0841377  -0.1060278  -0.2416612   0.5755921   0.8805254  -0.1529588
  -0.0210955  -0.6858926  -0.1384071   0.0006821  -0.0315828   0.5667052
  -1.1127653  -0.3882569   0.5619570  -0.3045050  -0.2494052   1.0033394
   0.3363335   0.0622722  -0.0256667  -0.7307334  -0.0295008  -0.2629259
  -0.2004886  -0.4653735   0.6876879  -0.2902267   0.3470335   0.0132339
   0.2106170  -1.0430577  -0.5147254   0.2495949   1.1302958   0.7176856
   0.2411219   0.1785575   0.1567962   0.3555558  -0.9572049  -1.3385612
  -0.2076800  -1.8934258  -0.5451214  -0.0994175  -0.2948590  -0.1531433
   0.5150602   0.4877786   0.0527107   0.5786240   0.4554109   0.5475018
   0.1551399   0.0828418  -0.1193634  -0.9325446   0.2561516   0.5966479
   0.2184371  -1.2808411   0.1246854   0.0500485   0.0451521   0.0521887
   0.4341067  -1.4995788   0.9006314  -0.0553055  -0.0073592  -0.0155517
  -0.2311946  -0.2118856  -0.2678379  -0.7836976  -0.8142767   0.9607140
  -0.0743028   0.1924953   0.3239051  -0.1645589   0.0750027  -0.3174982
  -1.4317321   1.7959344  -0.5324086   0.8200620  -0.1254513   0.7996513
   0.1894682  -0.0327667   0.0806993   1.7689042  -0.9832103  -1.0278906
   0.3054671   1.2480047   0.5109861   0.1679302   0.0881101  -0.1707305
  -0.9751472  -0.4595491  -1.1750991   1.0644701   1.2621510  -0.3979339
   0.0523924  -0.1816331  -0.0009567   0.8193744   1.4881285   0.8936270
  -0.6868557  -0.7036566  -1.3698314   0.0341776   0.0612351   0.0679338
   0.1104688   0.8132144   0.4882183  -0.6914661  -1.0046015   0.3868236
   0.0001286  -0.2783985   0.1913262  -1.5108943  -0.3016371  -0.4444153
   0.7364627   0.8242823   0.9650048  -0.2355130   0.0490066   0.1352973
   1.2490110  -1.8452964  -0.0207793  -1.1122913   1.6850818  -0.1191178
   0.0163540  -0.0023708   0.1383879   0.2005077  -0.9203654  -0.5981063
   1.1805385  -0.5375011  -0.1162909   0.4855700  -0.3014907   0.2061811
  -0.4378980   0.3945743  -0.1568041   0.8083156  -0.5081804   0.6939744
   0.4240829   0.2311330   0.3624203  -0.1108378  -0.4909430  -0.1406232
  -0.2802040   0.3168684  -0.3414968  -0.1030653   0.1064758   0.0685208
  -0.8165228  -0.2524180  -0.5003872   0.5549778   0.2763564  -1.4920738
   0.1524286  -0.0666086  -0.0716500  -1.6011728  -0.7853989  -0.1812911
   2.2333841  -0.1106325  -0.1367999   0.0634368  -0.0329268   0.0905741
  -0.6003659  -0.7552580  -0.1270002  -0.8340062  -0.2451341   1.2096128
  -0.0568196   0.0937818   0.0469838  -0.1706018  -1.4817457   0.7958062
  -0.1268786  -0.3001692  -1.0366563  -0.1059388  -0.3640985   0.2427813
   0.1507940  -0.2614974  -0.0364416  -1.0075736   0.7805204   0.2015263
  -0.0126651  -0.1220746   0.2932226  -0.0669623   0.7419546   0.8203160
   0.4500488   0.0242661   1.3802230  -0.0503132  -0.0509070   0.2223011
   0.6778088  -1.0939958  -0.0683727   0.4463946  -0.0710558  -0.4885075
   0.1409716  -0.2413370  -0.1123638  -0.5703655  -0.4225825   0.6631596
   0.1976603   1.1130009  -0.1368753  -0.0968766  -0.1207708   0.0834599
   0.8430712  -1.2240907  -0.4083954   1.2375714   0.7649917  -0.4245433
   0.2705950   0.0633521   0.0820069   0.8260350   0.7393370   1.1196560
   1.3589286  -0.5043017  -0.4778750  -0.0374369   0.1263765   0.0199322
   0.9122015   0.7553177   2.5072017   0.1735820  -0.8244922   0.6235124
   0.0074481   0.0851268  -0.1391618   0.7482066  -1.6144377  -0.1118997
   0.5133315  -0.2605958   0.2935935   0.1343150   0.1133729  -0.0836709
  -0.1118185  -1.7894093  -0.0355630   1.3579183  -0.1822861   0.8395021
  -0.2129400  -0.1167579   0.3533363   0.1219109   1.5295686   0.4073389
  -0.3553471   0.2069746   0.5948162  -0.0061178   0.3018731  -0.0646016
   0.3674409   1.2154690  -0.0877477   0.1826138  -1.0855339  -0.3832814
  -0.3537724  -0.2084714   0.1143130   1.6231946  -1.2056965   0.3354292
   0.3874293   0.0066142  -0.5593585  -0.0916206   0.1275400  -0.2781328
   0.4799764  -0.6728677   1.1422244  -0.0677354  -0.2239507   0.5656682
   0.2007505   0.2086126   0.0627877   0.3540950   0.0660610  -0.0754112
  -2.3165469  -1.0326265   1.9920349   0.2451261  -0.3134439  -0.1378894
  -1.5832477  -1.2186613   0.4597477   0.3505992  -0.5923162  -0.2044824
  -0.0822561   0.0254677  -0.0166762  -0.4259802  -0.8058040   0.0678381
  -0.1196496   1.4060954   0.2066716  -0.0735146  -0.0374201   0.1925224
   0.2151725   0.7920176  -0.9114395   0.9879497  -0.0676112   0.3162083
  -0.0095924  -0.0090126   0.1296531  -0.2697893   0.8705246  -0.5148408
  -0.1855835   0.5449063   0.4582102  -0.0874602   0.1370724   0.4411391
  -0.3759396  -0.2843748  -0.4787300  -0.6143492  -0.7041455   1.0325112
  -0.3259068  -0.0663079  -0.2630745  -1.1280373  -0.4713503  -0.4700626
   1.3166521  -0.9773185   0.1289822   0.2111704  -0.2208433  -0.0122410
   0.8023401  -0.2922934  -0.4421472  -0.7766361  -0.0281191   1.2805892
   0.0453390  -0.3908353   0.2594723  -1.4095136  -1.1891739  -0.5938278
  -0.0199656  -0.5339498   0.3209976  -0.0155300   0.1309623   0.0008165
   0.0058192  -0.3354982   1.0339160   1.1665366   0.1234160   0.3366217
  -0.0299137   0.2267858   0.1470485  -0.3029130   0.1752899   0.0889355
   0.2769899   0.1183851  -0.0315568   0.0134749   0.2205341   0.1396982
   0.1445531   0.5902898  -0.0866477   0.1897449  -0.0985091  -1.1194752
   0.0302695  -0.0397711   0.2374212  -0.2833809   0.9595578  -0.3890450
  -0.1655161  -1.0290424  -0.0409442   0.0391119   0.2125313  -0.1850428
   0.3422479  -2.0517604  -1.8035716   1.3667753  -0.4059956  -0.3927158
   0.2774417   0.2942048  -0.0651324  -0.6768383  -0.0321906  -0.5883924
   0.0906058   0.6944635   0.2212593  -0.2548365   0.3293168  -0.2113721
   0.4684449   0.2071976   0.8220144  -0.1881732  -0.6589736   1.2209904
  -0.1397114   0.0724098   0.0339980   0.1481854   0.6783996  -0.8867815
   1.5023545   0.4053693  -0.4944875  -0.3173505  -0.1261993   0.0557084
   0.3875902   1.0135266  -0.1925972   0.7119752   0.0106249  -0.6692281
   0.1663563  -0.0169834  -0.2825994   0.3027757   0.1247187  -0.8398120
  -0.5319316   1.1648750  -0.7400531  -0.3825151   0.0832303  -0.0012533
   1.2948509  -0.1450800   0.1476002  -0.8678964  -0.9424594   1.3744500
  -0.1082675   0.0128969   0.2374388  -0.4372649  -0.2220733   0.6847995
  -0.0506188  -0.1261236   0.5914814  -0.0406176  -0.0232349  -0.1316110
  -0.3612883   0.4560848   0.2425973   0.5336031   0.0972710  -0.1829169
   0.1495948   0.0122064   0.1012794   0.1344069   0.0083604  -0.2709492
   0.9809414  -0.0740950  -0.2028372  -0.2618730  -0.2897292   0.0278219
  -0.5600490   0.9959740   0.7479865   0.5115545  -0.1558538   0.0579011
  -0.0253662  -0.1178598   0.3101342   0.1743525  -0.5338360   0.6692321
  -0.0892681  -0.9938486  -1.3932717  -0.2565138   0.4188484  -0.1211506
   0.7986755   0.9946820   0.3218921   0.8531249   0.8134643   0.1556950
  -0.0991145   0.0516746  -0.4201294   0.2040762  -1.1667701  -0.6195413
  -0.3721053   0.8993354  -0.1734093   0.1476828  -0.1097819  -0.1078065
  -0.3490880  -0.5167977   0.0962249   1.2798642  -1.2074280  -1.5407439
   0.5130690  -0.1026301   0.0773534  -0.3963458  -0.9418716  -1.6155478
   0.4919830  -0.5203271   1.1769161  -0.1102999  -0.0991228  -0.1683490
  -0.1777584   0.5227063   0.4597031  -1.6611573   0.2426344   1.1965114
  -0.0121869  -0.0370263  -0.0122381  -0.2564279   0.7708245   1.2824780
   0.3844272   0.8188264  -1.4406639   0.2256067  -0.1622554  -0.1931098
   0.1148050  -1.5714403  -0.0654742   0.3914554   0.4893485  -0.0379592
  -0.1832260   0.1906947  -0.2411880  -1.5508145   0.5473185  -0.6577385
   0.4407043   0.7196689  -0.2766299   0.0313670   0.2402027   0.3570058
  -0.9633595   0.5767440   0.0763385   1.1398215  -0.5001302   1.1220813
  -0.0121148   0.1023765   0.2530358   1.0274947   0.9371337  -0.5354250
   0.7951404  -0.7903748   1.0749338  -0.1902477   0.0366274   0.0622491
   0.7958576   0.3664557   1.3308547  -1.0224062   0.3057252  -2.3579824
  -0.0450944   0.4658457  -0.3066137   0.7061008  -0.1380458  -0.3099210
  -0.5128801  -0.4480752   0.0380613   0.1189430   0.1347851  -0.0267117
  -0.0238506   0.4846296  -0.0998683   0.6553218   0.6327167   0.4921713
   0.0245123   0.1618190  -0.0700437  -0.4913056   0.4855715   1.1448684
  -0.4455473  -1.1923088  -0.7205993  -0.5668176   0.1902376   0.0098915
   0.6688059  -0.6168047  -0.5592404  -0.4684442   0.5940107  -0.0371938
  -0.0834626  -0.3394488  -0.0540339  -0.4812382   0.0284885   0.0466242
  -0.1343758   0.4530506  -1.1906992  -0.0204976   0.0163236   0.0941135
   2.3694880   0.3760589  -0.9928355  -1.2542011   0.3137507   0.5179350
   0.1246418  -0.0181837  -0.1911566  -0.0603480   1.6318656  -0.0187799
   0.4458938  -0.9067327  -0.7995888   0.3062585  -0.1804220   0.2520033
   0.9481416   0.9539742  -0.0964945  -0.2624198   0.1947093  -1.1590927
   0.2535260   0.3827610  -0.0401735   0.4657931   0.4093927   1.1702557
   0.4740099  -0.3584116  -0.5836503   0.0270660   0.0816737  -0.1070209
   0.4933276  -0.0744109  -0.7992413   0.6575065   0.5815502   0.9200977
  -0.1253608  -0.0601164   0.2650983  -0.0907979   0.1787925   1.2127812
  -0.5195765   0.2082838  -0.3959939   0.1126768  -0.1656132   0.2616747
  -0.0952132  -0.2135738   0.9656798  -0.8761782  -0.6919059  -0.4388427
  -0.0828106  -0.2116383  -0.1976070   0.5284423  -0.0331671  -0.8697680
  -0.9612681   0.1933251  -0.8593707   0.0050073   0.1274657  -0.0518219
   0.5880710   1.3256160   1.3888199  -1.2310435  -0.6366108  -1.1824027
  -0.1074385  -0.0813106  -0.2092914   0.8747276   0.2249705   0.3144624
   0.0704038  -0.2765537   0.1568448  -0.2198825   0.3576356   0.3453854
  -0.4431258  -1.0496539   1.3880821  -1.0669245   0.4125521  -0.1838997
   0.0213663   0.0951087   0.3108160  -0.8801412  -1.2962900  -0.3544549
  -0.6706019  -1.5635570  -2.0393925   0.0501940   0.1120763  -0.1837076
   0.8279728   0.1236020   0.6853556   0.8806659   0.8348616  -0.1703878
   0.2319608  -0.0978136  -0.4692678   0.2170292  -0.1914501  -0.1612109
   0.4214024  -1.3357614   0.4640468  -0.3820221  -0.0234942  -0.0799768
   0.5860102  -0.0832072  -0.0245881  -0.2582445   0.8306434  -0.2785620
  -0.0305306   0.1810661  -0.1334206   0.2537865  -0.1463187  -0.4024902
  -0.0309990  -0.0112888   0.7040640  -0.1127519   0.1680415  -0.0061429
   0.3616806   0.5857559  -1.0635445   0.2023989   0.4462645   0.6726528
  -0.2251818   0.2416659  -0.0828242   0.4468235   1.6970214   0.0285606
  -0.0423888   0.0807919   1.8802098   0.0640512   0.1487396   0.2220703
   0.6016273   0.3636305  -0.3238991  -0.8589041  -1.8750669  -0.6969646
   0.1012955  -0.1789596   0.0560355   0.6240891  -0.1892547  -0.0808377
  -0.5933284   0.3650986  -0.2034775  -0.0582535   0.0625527   0.2485789
  -0.2495318   1.0302324   0.0873447  -0.1296720  -0.5009821   0.5615107
   0.1935455  -0.0351390   0.1585933   0.7348803  -0.6002436  -0.3781486
   0.0322363   0.1632619   0.3895063  -0.3547368   0.0945641  -0.2668396
  -1.9937727   0.4443287   0.6353404   0.0326124  -0.5706190   0.0231280
   0.0255016   0.0270815   0.0136599   0.9839259  -0.5935984  -0.5500610
  -1.3502412  -0.2747276   0.1850692   0.1536676   0.1614676   0.1604158
   0.1173418   0.3942825  -1.0895324   0.6133808  -0.0773884  -0.1516963
  -0.1022036  -0.0800615   0.1752886  -1.8524663   0.0780500   0.4753709
   0.0793591  -0.0253135   0.9248202  -0.0194499   0.0031928  -0.0857026
  -0.5981275   1.7177367   1.4903809   0.0706820  -0.0380447  -1.2044370
  -0.1599473  -0.0133848  -0.1576124   1.3730829  -1.0822901  -1.1028870
  -0.0334326   0.6770691   0.4499580   0.0385060   0.0806956   0.0884630
   0.6404378   1.1239456   0.2558595   0.3309876  -1.1780643   1.0880307
   0.1801891  -0.2033521  -0.0888617   0.7249485   0.5689042  -1.2028444
   0.0073513  -0.3327636  -1.0667276   0.1779467  -0.3481824  -0.0651546
  -0.2582218  -1.4977653   1.6065853  -0.7856819   0.1292959  -1.4147667
  -0.3165086   0.1878103  -0.3429580   0.7942392  -0.6750057  -0.3381683
   1.2272358  -0.5399582   0.8330091  -0.3242679  -0.0033274   0.0599669
  -0.3018358   0.4762151   0.4715863  -0.4252212  -0.3294457   0.4205853
   0.1279564   0.3683740   0.1954806   0.5861789  -0.9605392   0.2197793
  -0.2099547   0.4993863   1.0386389  -0.1025014  -0.2133794   0.0611127
   0.4311596  -1.0647982  -0.5973155  -0.9547902   0.7571346  -0.7451277
   0.3789251  -0.0371986   0.3258979   0.0700275   0.2098808  -0.4304036
  -0.1422667  -0.8057301  -1.0581650   0.1854966  -0.0602874   0.0419251
  -1.7772936   1.0042578  -1.4854239   0.6004218  -0.8173350  -0.3901919
  -0.2808920  -0.1108508  -0.0759727  -0.8225242  -0.4653437  -2.3705962
  -1.4219072   0.9549441   0.8536972   0.0235731   0.0057254  -0.0915393
   0.1217420   0.0377357  -0.3709911  -0.1641934  -0.2506905  -0.1236841
   0.2393101  -0.2969680   0.1850421   0.0011923   0.0149889   0.5798389
   0.1658270   0.1935809   0.0305242   0.0636878  -0.2341522   0.0789617
  -0.9320117   0.4929980  -0.5005416  -1.0649724  -0.4202765   1.8829151
   0.0181967  -0.0094533   0.1733027  -0.0533174   0.6962746  -0.3742344
  -0.4253860   1.3632195  -0.2333190  -0.0892303   0.1968758  -0.3174791
   0.0518090  -0.9248236  -0.1482285   1.0464903  -0.3193455  -2.0784302
  -0.0729252   0.0005863   0.0284544   0.1650246   0.2660081   0.5979066
   0.4644698  -0.4457232   0.2268174   0.0535871   0.3543293  -0.0097764
  -0.1523771  -0.6454844   0.2653096  -0.4246569   1.7083857  -0.3279950
   0.1080336   0.3136713   0.0440103  -0.3707149  -0.7141054  -1.3357884
  -0.5673898   1.0915947   1.0824785   0.1781905  -0.2304188   0.1419205
  -0.2118054   0.5972726  -0.2654127   1.1888375  -0.4475486   0.3537030
   0.2029452   0.1360091   0.1150306  -0.9540269   0.0713460  -1.3985775
  -0.7413621   0.3416161  -0.8268724   0.3022400  -0.0069505  -0.2812157
   0.5490636   1.5155485   0.2805824   0.6396041  -0.7250162   1.7057697
   0.2559786   0.0007781   0.2492321   0.7115393   0.7941289   0.3647504
  -0.3631186  -1.2146915   0.5609618  -0.4918625  -0.0038936   0.2631945
  -0.0440898  -1.0568783  -0.3852575   0.3593926   0.1809564   0.6134380
   0.1240303   0.0185458   0.0678822  -0.1020631  -0.1228651   2.1758225
  -0.7946121   0.6150598   0.6436210   0.2148821   0.0436626  -0.1725722
   0.2483375   0.1946325   0.3458689   0.4908452   0.3242670   0.9748271
   0.1656674  -0.1984058   0.3228335   0.3011232  -0.0066510  -0.2331630
   0.1121243  -1.0390512  -0.8323206  -0.1705935   0.3941965  -0.1148151
  -0.1380862  -0.1982836  -0.5802337   0.8429559  -0.3943386  -0.5192201
  -0.0514633  -0.0113594  -0.2480135   1.3424861   0.2286780   0.6882740
  -0.7451240   0.9080674   0.2881013  -0.1812087  -0.0600980   0.1820386
   0.6880076  -0.8733849  -0.6387370  -1.2208942   0.6226720   0.8393438
   0.3872866  -0.1113076  -0.3165838  -0.7013558  -1.1154933   0.0597547
   0.7177801  -0.2196273   1.0337753   0.1292129  -0.1583992   0.2161633
  -0.4388544   1.4845062  -1.4227145   0.4067875   0.4768444   2.2517543
  -0.1040801   0.5674874   0.0823214   0.1078835   0.8816221  -0.4483181
  -1.6267391  -0.6696107   0.5863525  -0.0158072  -0.0352777  -0.1660523
   0.8811663  -1.0895617   1.9238982  -0.4820662   0.0013037  -2.7550309
   0.2811970  -0.0918920  -0.1166600   0.4675481  -0.6255203   0.3953567
   0.8492877   0.4682726  -1.5213649   0.0528930   0.1460974  -0.1089363
   0.4321501  -0.5436705   1.1498365  -0.8587279   0.1975814   0.1943487
   0.2946590   0.4555173  -0.0802938   1.0895455   0.0623473   0.3366788
   0.8069992  -0.4564211   0.0947229  -0.0566403  -0.0741907   0.0643730
   0.1773094  -0.3961911   1.4193563   0.2539705   0.7431443   0.2312758
   0.0171902   0.2690319   0.0998537  -0.7643519  -1.5632907   0.0940103
   0.4704899  -0.0913749  -0.1112565  -0.0720468  -0.1928513  -0.1920368
   2.0208123  -0.7757227   0.9452219  -0.5324333   0.4625610   0.5887522
   0.0821206  -0.3671432   0.2584148  -1.6591573  -0.5094261  -0.5626082
   0.5785493   0.9447879   0.1883995   0.4059730   0.0556600  -0.0195135
   0.5790234   1.0861470   1.1376939  -0.7018008  -0.1380659   0.3483564
  -0.1785519  -0.0659517  -0.0841217   0.0927116  -0.9299020  -0.8455809
   1.7764455  -1.0062140  -0.1031182  -0.1965571  -0.1625764  -0.2205163
  -0.4877006  -0.0055884   0.3477196  -0.2144041   1.7432209   0.1215432
  -0.0440919   0.2248678   0.0622668  -0.7113360   0.2699218   0.2313033
  -0.2253621  -0.2699893   0.4420679   0.0962664   0.0633172  -0.1704818
   0.7902683  -0.5241929  -0.7232959   0.0669164  -1.8537124  -0.3712805
  -0.1476153   0.0728413  -0.1297668   0.8234589  -1.0302924   1.1126124
  -0.3937673   0.8035733   1.1160282   0.0789109   0.0208959  -0.1491386
  -1.2124045  -0.1988758  -0.8132058  -1.2715524   0.1237528   0.9427649
   0.0587570  -0.0906953  -0.2918033  -0.2130068   0.4032773  -0.0758372
  -0.7203960   0.0465600  -0.6541983  -0.0555947   0.2389167   0.3339168
   0.2131640   1.4964348   0.5873870  -0.3632789   0.3245904   0.4667640
   0.2565901   0.2417921  -0.1263490  -0.1986615  -1.1398551   1.8843472
   0.7294836  -0.5531138  -0.1175265   0.1020275   0.2229143   0.0483219
  -0.8228796   0.1849166   0.4430278  -0.9881793   0.7229822  -0.4988463
   0.1829646  -0.0727703  -0.3449445   1.4613571  -0.5185965  -1.1300066
   0.0776212   0.1242339   1.6703459  -0.0214606  -0.2048151   0.0448980
   0.1026442   0.2068725  -0.4128400   0.8715416  -0.0264192  -0.0978508
   0.0678601   0.1256246  -0.1427055   0.6323550  -0.8157885  -0.3754556
   0.6081126  -0.1037528   0.0115409  -0.2486629   0.0181613  -0.2166799
  -0.2933525   0.9913191   1.0091308   0.7030467  -0.8835130   0.5373960
  -0.0703151   0.1370806   0.2267812  -1.3835623   0.7592752   0.5579247
   1.0311848  -0.1185652  -0.2585310  -0.0402437  -0.6127244   0.0834028
   0.9762069   0.5064814  -0.2380015  -1.5613315   0.2298891  -0.4356879
  -0.2484254   0.0069720   0.0671463   0.7050737   1.3390005   1.5922266
   0.0382417  -0.4880717  -0.6358269  -0.3830700  -0.4134640   0.1704073
  -1.0545906   0.3957100  -0.0222838  -0.2582358  -1.5575491  -1.0054960
  -0.1318229  -0.0229605   0.0361452   0.8876046   0.7267066   0.2822213
  -0.4262218  -1.0881507  -1.1490190   0.0478083   0.1186589   0.1666791
   0.9982697  -1.3424954   0.5748150  -0.7990717  -0.4406173   0.7613121
  -0.1204135   0.0187458  -0.3638089  -0.0043146   0.0840858   0.9682918
  -0.1700984   0.3509929   0.4246580   0.2770916  -0.1463959   0.1586874
  -0.4024796   1.0339191  -0.2710634   1.3646091  -0.9186181  -0.7485151
  -0.1899100  -0.4530762  -0.2492956  -0.2202332   0.6771967   0.6808055
   0.7855011  -1.2769872   0.4628346  -0.1585817   0.1204245  -0.2003434
  -0.1907367   0.1866592  -0.2562243   0.7802088  -0.2715867  -0.9440925
  -0.0010654  -0.0670981  -0.1115617  -0.4999634   0.2627037  -0.7044813
   1.2518198  -0.4787736   1.3830240  -0.2459814   0.2090270  -0.0518380
   0.0076114  -0.7866245  -0.7497546   0.7697710  -0.6902449   0.0541933
   0.1685881   0.1639282   0.1484114   0.2521698  -0.2067051  -0.1422167
   0.6449297   1.5403866   0.0675032  -0.3145784   0.1671085  -0.1025035
  -0.0390432  -0.3205233  -0.9402643   1.7008436  -0.3638712  -0.8195358
   0.3040900  -0.2833648  -0.1418966  -0.7513686   0.6468853   0.8254724
   1.3228681   0.2034422  -0.8875855   0.6379572   0.0777479   0.1068468
   0.8084618  -0.4897146   1.1007819  -0.0608638  -0.5790960  -0.0300477
   0.0273810   0.0745625   0.2018343   1.3342470  -1.6342154   0.0346068
   0.2126595   0.4734554  -0.0742046   0.2430061  -0.0124655   0.2186096
   0.3058624  -0.8053512  -1.0319718   0.0400090   1.0349619  -1.6431725
   0.3490388   0.1087131   0.1971470   0.7630092  -0.1062864  -0.7836248
  -0.6758307   1.0196984   0.3197485  -0.3133277   0.0031831   0.1165066
  -0.9667141   1.0239685   0.1637211   0.5587718  -0.2193034  -1.0776567
   0.1515728   0.0803540  -0.2346858   0.4775199  -0.7340225  -0.1575218
  -0.6822362   0.8074970  -0.9366023  -0.2008860  -0.0644335  -0.1532814
  -0.4671043   0.8602304   1.3428931   0.5279534  -0.7478887  -1.3799922
  -0.0659596  -0.1020272  -0.3272713   0.8356423  -0.0522400   0.7496308
   0.1289726   0.2412015  -1.8957552  -0.1988247   0.2051997  -0.4191936
   0.1331264  -0.5577701   1.2369651   1.5923104   0.5000291   0.4448817
  -0.0445108   0.1491972   0.0606562  -1.3924720  -0.4651838   0.7725585
  -0.5040886   0.0468473  -0.5770845   0.2482626   0.1518452  -0.0394416
   0.6950569  -1.4880857   0.0874307   0.1623745   0.6297461   0.2397760
  -0.0448349   0.0818527   0.1304199   0.0321879   0.3833066  -0.3630587
   0.6914685   0.5101962  -1.0333772  -0.0172007   0.0187530   0.2355225
  -1.0913408  -0.9298126   0.6070276  -0.1242341   0.0328822   0.8025565
  -0.2251834   0.0621332  -0.0604505   0.7577732  -0.5670754  -0.7669750
  -0.4980724   1.1122658   0.7894490  -0.2499344   0.1149980  -0.1043100
  -2.6190572   0.4643160  -0.1153386  -0.4111502   1.5152224   0.2428557
  -0.3965476   0.1453711   0.0074199  -0.5316656  -0.1392381  -0.0780176
  -0.1778494   0.8059065   0.7998205   0.0428206  -0.0990304  -0.1757607
  -0.4812908   0.6692069  -0.2876526  -0.1211884   0.1451665  -1.1201538
  -0.2364397   0.1279746  -0.2509895  -0.1581598   1.4250234  -0.5342291
   0.7206419  -0.6822134   0.5770229   0.0381368   0.2725495   0.1495651
  -0.5782983   0.3845643   0.7884326   0.6467128  -0.1339408   0.5443686
  -0.2328018  -0.0129000   0.0005477  -0.7757279   0.4778341   1.0109414
  -0.3651986  -0.5440590   0.2137214  -0.0797475   0.1217480  -0.3435690
   0.3521926   0.2380208   0.6934047   0.1116900  -0.9177471   0.0252216
  -0.0487511   0.1011833   0.2005254  -0.1749745  -0.5757840   0.3755606
   0.2705017   0.5997201  -0.3934547  -0.0173468   0.1165566  -0.2296293
  -0.8437695   0.3266443   0.3150937   0.2900032   0.3357322   0.3547423
   0.0377305  -0.0417836   0.1939740  -0.0728430   1.5089815  -0.8926524
   0.1235645   0.2620976   0.4980831  -0.1544406  -0.0083200  -0.1843183
   0.4346042  -0.9019412   0.7837859   0.2404129  -0.8136852   0.0942182
  -0.0624352   0.2796422  -0.2246542  -0.2376942  -0.3829370   0.5508267
   0.3164055   0.5074016  -1.8863450  -0.0874265  -0.0847181   0.2178247
   2.2378590   0.7341177  -0.2696874  -1.0986305  -0.1499089   1.0615360
  -0.2210466  -0.0165141   0.4434811  -1.4670031  -0.2272918  -1.0967203
   0.3344724   0.5861155  -0.5711832  -0.0164206   0.1321438   0.0578770
  -0.5190700   1.1656024   1.3447895  -0.3289356  -1.6497302  -0.9734254
  -0.2995909   0.0891953   0.0989768  -0.2988827   1.3886418   0.8992582
  -0.4651437  -1.1576389   2.2370222  -0.1094335  -0.0790908  -0.2110005
  -1.0483110  -1.4827876  -0.2386502   0.4677486   1.2244984   0.4827760
  -0.1907470   0.0354092   0.0844257  -0.3074738  -0.1908498   0.4913769
   1.7293348   0.9647021  -0.4231625   0.1797796   0.1586687   0.1423936
   0.2464518   0.7930615  -1.0068283   0.8667927  -0.6011649  -0.1972802
   0.1297933   0.1205821  -0.0414622   0.4088080  -1.3635972   0.2174202
   0.9072388   0.1559017  -1.1396586   0.2493216   0.1236170   0.3928269
   2.4528589  -0.1301292   0.6391233  -0.6294069  -0.2032036   0.1073011
  -0.3328282  -0.0824096   0.1247489  -0.7696044  -1.6477977   0.3867504
  -1.2169403  -0.3438444  -0.5856968   0.3267933  -0.1182303  -0.1385217
   0.2650654  -0.3654974  -0.2808370  -0.6264377  -0.5795932  -0.3313874
  -0.0971717  -0.2338201   0.0192797   0.7166597   0.1326077  -0.4448015
   0.3291252  -0.4631988  -1.6203451  -0.3551580   0.1085634   0.1209129
  -0.4821661   0.0086031   0.1662933  -0.2520115   0.9243741  -0.9080234
  -0.1706863  -0.2194285  -0.1487629  -0.7377375  -0.1182035   0.5966299
  -1.0766387  -0.4482995   0.3381414   0.0794519   0.0153859   0.0200546
  -0.5529377   1.4274203  -0.6602879   0.3999529   0.3584258   0.3270961
  -0.1038499  -0.3595901   0.2135029   0.7003089   0.8171484  -0.0116884
  -0.7846690   0.2949307   1.5970434  -0.3023888  -0.0904434  -0.0049410
  -0.4710761   0.5275924   0.0400354  -0.6272418   0.3459120  -0.2973570
   0.2136628   0.2032442  -0.2920006   0.1709697   1.2941990   1.1424359
  -0.6457410  -0.3179952  -1.4844519   0.0775337   0.3316349  -0.0525389
  -0.5608363   0.2203508   1.1538730  -0.3840107  -1.0734950   0.1013007
   0.0659214   0.1690131   0.0789481  -1.0303267   0.3720166   0.5794331
  -0.2515120   0.2541735  -1.2792363  -0.4111743  -0.2726847  -0.0159388
  -0.1206435  -0.5130742   0.9933869   0.2164479  -0.3816541  -0.8874606
  -0.0127220  -0.0652821  -0.1727485  -1.4953520  -0.3356557  -0.1284778
   0.3377529   0.2583027  -0.2985104   0.1565513  -0.0390765  -0.1956251
   0.3083253  -0.6828771   0.9737079  -0.1570413   0.4332269  -0.5918762
  -0.3622752  -0.1203142  -0.0375256   0.4165335  -0.4064740   0.0050529
  -0.0687075  -0.5411754   1.1967287   0.0668411   0.0492144  -0.3099075
  -0.0357575  -0.3967597   0.6557596  -0.0284749   1.1052501   2.1209278
   0.2093640  -0.0059639  -0.0089170   0.9857018   1.3461468   0.2312840
  -1.2514068   0.4994800   0.4529133  -0.3100334  -0.1362125   0.1648912
  -0.6999627   0.9620591   0.7825134   0.4541435   1.1965390   0.0326053
  -0.2278065   0.3480127  -0.0275600  -0.1254342   0.0469552   1.1221249
  -0.6531310   0.7765127   1.5882378   0.4604604  -0.3624987   0.0613741
  -1.3234847   0.2745879   0.3918864   0.0819857   0.2789992   0.2627904
   0.0492452  -0.0298314  -0.2114652   0.7578585   1.2834429  -1.6786684
  -1.1632361   0.3051274  -0.1008828  -0.1130368  -0.2453053  -0.0883108
  -0.2104112  -0.6614691   0.6099141   0.0372129  -0.2613028   0.1019012
  -0.2255740   0.1649209  -0.3565374   0.2081328   1.2509601   0.8696169
   1.4923580  -0.9115810   0.8754753  -0.0956998  -0.0374104   0.0489710
  -0.4489298  -0.2935010   1.2869787  -0.1826262  -0.2407757  -0.3396552
   0.0368028  -0.0420511   0.0906062  -0.8421922  -0.2374271  -0.9566700
   0.4856399  -0.4174031   1.1453724   0.1846379   0.0185379  -0.0433588
  -0.5615952   0.6590116   1.2846525  -1.2328458   1.2668869   0.0569411
  -0.0032000   0.3276791   0.2392465  -1.3843435   1.0787357  -1.1584643
   0.7029497   1.3333619   0.1270033  -0.0111162   0.0484076  -0.4931292
   0.8654811   1.8401339  -0.2785687  -0.5094983  -1.6887258   0.2762773
  -0.2357115  -0.0232171  -0.4425148  -1.0122502  -0.2415468   0.6597382
  -0.7540464   0.0988456  -1.1466426   0.3730712   0.2056527   0.0451986
  -1.5368046  -0.0220391  -0.0705505  -0.2061152  -0.1537353   0.4738851
   0.0406923   0.1266648  -0.3561029  -0.0745837  -0.1964158  -0.8084249
   0.0239335  -0.5637420   1.3663958   0.1468762   0.0864696   0.0206063
  -0.2996664  -0.1563190  -1.2878244  -0.5159069  -0.0862618   0.3937975
   0.2752458   0.1451590  -0.4998650   0.0156980   0.1245272   0.7866213
  -0.5439225  -0.2990783   0.2152070   0.3089955   0.0216532   0.0698763
   0.8252390   0.1184160  -1.2812740   0.3636858  -0.5317261  -0.4164765
   0.1174570  -0.3168184  -0.3358965   0.2701207   0.2005765   0.2417689
   0.8038025  -0.4421283  -0.1400044   0.1336993   0.0285070  -0.2595379
   0.7668135   0.3004413   0.1319785   0.3497083   0.1242513  -0.2394508
  -0.1519469  -0.0782512  -0.0991903   0.3527277  -0.0076480  -0.2515227
   0.5314059  -0.4623047  -0.0936652   0.1126116   0.0630493  -0.0045269
   0.9037498  -1.1184779   1.7614830   0.0616765   0.3159248   0.2340978
   0.1360298  -0.0735757  -0.0357197   0.4238313  -0.4047444  -0.5224791
   1.1303911  -0.7817014  -0.5166728   0.2507312  -0.1440115  -0.0881522
   0.5230216  -0.7713330   0.1913197   0.4221377  -0.1471706   0.1770906
   0.0744032  -0.1522880  -0.2813180  -1.1233022   0.4419861   0.5196629
   0.7806655  -0.0651453   0.5382984   0.0256648  -0.2190982   0.1662062
  -0.4210784  -0.7973452  -0.3757301   0.4227490   0.3686340   0.7168065
  -0.0193247   0.0414062  -0.0443221   1.0806662   0.1391884  -0.3091260
  -0.5831887  -1.4377848  -0.3292297  -0.1310524   0.1713193  -0.0543760
  -0.1718675   0.1327401  -0.7177885   0.9233712  -0.0877850   1.1166965
   0.0055838   0.1598224  -0.0663381   0.0419294   0.7674524  -0.8292174
   0.3319836   0.0643746   0.1038736   0.1655684  -0.0361472   0.0616391
  -0.1580379  -0.5611710   0.1670268   0.2581790  -0.1347374   0.6542904
   0.0657717  -0.1734405   0.0340820   0.0967548   0.1564441  -0.6228512
  -0.7165059  -1.2037705  -0.4506182  -0.0626222   0.0618831  -0.2524390
   0.0532378  -0.4658827   0.0139829  -1.0357244   1.9952992  -0.2259959
   0.1994601   0.0677248  -0.2412888  -0.7648691  -0.0767815  -0.3826418
  -0.2006314   0.3684840  -0.7594211   0.2715280   0.0845808  -0.2446144
  -0.4207827  -0.4202503  -0.1835139  -0.4885505  -1.0492738  -0.0876809
  -0.1524956   0.1517399  -0.4400635   0.2510631   0.0177743   0.7682546
  -1.3421376   1.7516866   0.1263772   0.3108676  -0.0858753  -0.0570027
  -0.3158872  -0.1564897   0.2511176  -1.0915853  -0.9819306   0.5514479
   0.1482885  -0.0918040   0.0917362   1.2831231   0.7646775   0.1636660
   0.0231900   1.5282389   0.6166084  -0.0128311  -0.1118979  -0.3059409
  -0.6742220  -0.7634948  -0.2868602  -0.5672139  -0.9655856  -0.2972131
   0.1346725  -0.0972406   0.1180754   0.9681540  -0.6625696  -0.1230578
  -0.0884826  -1.1246320  -0.1671482  -0.0677948   0.3144176  -0.2355775
  -0.0477492  -0.6266267   1.6474090   0.1953217  -0.0471772   0.3409960
  -0.0851772  -0.1228254   0.0305024   0.6813545  -0.5526666  -0.2457849
   0.2832104   0.0140626  -1.2927836   0.0810197  -0.0077869   0.0298869
  -0.3550594   1.5936688   0.2645701  -0.1834717  -0.5059993   0.1586597
  -0.3601633   0.0283840   0.4488517   0.0803723  -0.0806030   1.2182765
  -0.0106035   1.2633330   1.2855312   0.2405622  -0.1545410   0.1784788
  -0.4703657   0.9012108   0.6179188   0.7094261  -0.6655116   0.7300630
  -0.3286731  -0.0491284  -0.2240342   1.7441448   0.7661865  -1.1587830
  -0.4231043  -0.3582458   1.6399050   0.0466654   0.1854761  -0.0760724
   0.9743165   0.3139086   1.7259197   0.6630918  -0.5649775   0.6205646
   0.1591358  -0.0357939  -0.4117920  -0.3748244   1.0431844   0.0974032
  -0.4726563   0.3114217   0.0153062  -0.2151439   0.4589945   0.1764138
   0.9316007  -0.6987652  -0.8819750   1.4266784  -0.2635479   1.5067106
   0.0535919  -0.1805530  -0.0397220  -0.9978602  -1.4948730  -0.1030201
   0.0408621   0.2083932   0.2975536  -0.2564127   0.2062520   0.1846651
  -0.9344891   0.3521125   0.4134642  -0.7093730   1.0536152  -0.5686280
  -0.1703468  -0.3633904  -0.4225100   1.3238102   0.1387981  -0.4093904
  -1.7377418   0.0260427   0.7746369  -0.1988157   0.1878874  -0.0907459
  -0.6271091   0.3892804  -1.2036439  -0.3442248   0.6898063   0.9179261
  -0.0848471   0.0859237  -0.0065365   0.0613163   0.1304806  -0.4873379
  -0.1944653   1.3967818  -0.5180013   0.0651051  -0.1277636  -0.0531706
   0.3266788   0.1686236  -0.4168641  -0.0659804   0.3768551   1.0124649
  -0.2589588   0.2046878  -0.2358463   0.0956723  -0.5570886  -1.3476305
  -0.9938737   0.0938722   0.0775896   0.0309107  -0.1687561  -0.3166509
   1.3640101   1.0149114   0.6503962  -0.4582808   0.0002817   0.9900504
   0.1791634  -0.1030004  -0.2204178  -0.1772548  -0.2068698  -0.6671454
  -0.2022469  -1.1482422  -0.4647507  -0.1437714  -0.2015126   0.2573766
  -0.2917744   0.6405895  -0.7190343   0.9538201   0.1183383   0.3318972
  -0.0682845   0.0911946  -0.1534282   0.3014612   0.8970657   1.3674145
  -0.3374525  -0.0884723   0.6891855  -0.2514191  -0.0529092  -0.0705882
  -0.1749777   0.6487066   0.3345074  -0.2500899  -1.1829050   0.7250579
  -0.1253471   0.0703787   0.3601238   1.0730462  -1.7685355   0.3584111
  -1.5467818   0.8592668   1.0700048  -0.0885564   0.0213964   0.0526824
  -0.4853843  -0.0874899  -0.3264427  -0.7321485  -0.5140856  -1.7068541
   0.2973779  -0.0105879   0.0210904   1.1621715  -0.0623582   0.2594270
  -0.8035199   0.6343063   0.7659313   0.5538895   0.0202735   0.3638986
   0.1077366  -0.0463950  -1.0028644  -0.8466899  -0.4498655   0.3905190
   0.0738622  -0.0717382  -0.1185454   0.1252707   1.1269367   0.0767950
  -0.0944070   0.6725326  -1.5392581   0.1513999   0.0677517   0.2880427
   1.8169618   0.7836363   0.2279837   0.5900414  -0.4846777   1.7044920
   0.0173843  -0.1368078   0.1768604   0.0664368  -1.5501853  -0.1574254
   0.3445913   0.6879149  -0.5751610   0.0168669   0.2149297  -0.2205839
   0.5059712   0.3747495  -0.9333079   0.3251724  -0.3659498  -0.3547264
  -0.2954963  -0.2877998   0.2745243   0.1898270   1.4637849  -0.6457098
   0.7890077   1.5690427  -0.3749855   0.2126212  -0.2707514   0.1737142
  -0.0933499   1.3583552  -0.1979488   0.2283014  -1.4945196   1.0489118
   0.0802119   0.2347759   0.0106402   1.0474491  -0.9517913   0.9715895
  -0.4816878   1.0382198  -1.4973297   0.0512548  -0.0591604  -0.2851547
  -0.9523799   1.0195516  -0.9457832  -0.6474993   0.1331200  -0.1273014
   0.2331170   0.2016532   0.2326483  -0.0288509  -0.3075945   1.1681720
  -0.8972650   0.7623007   0.5436202   0.1620836  -0.0342643   0.0007986
   0.3947627  -0.6512117   0.9159960  -0.0977084  -0.1983659  -0.0355608
   0.0468766   0.1180330  -0.0853580   0.9546089   0.6208968  -0.8727075
  -0.7178043  -0.1082143  -0.1259238   0.1054597   0.0638501   0.3473941
  -0.4059919   1.3582164  -0.3431356  -0.8143589   1.3418821   0.3307262
  -0.3014776  -0.0714097  -0.2569475  -0.1284115  -0.1555379   0.9600008
  -0.3309275  -0.0925364   0.0733690   0.3414245  -0.2970970  -0.2020270
  -1.4751691  -0.4042656   0.3765845   1.1050273  -0.8930050  -1.5582607
  -0.2389874  -0.1803952   0.1410551  -1.9821892   1.0733533   0.5828950
  -0.4709893   0.0750400  -2.4511974  -0.1889653   0.1113296  -0.1493341
  -0.0105616   0.6344791  -1.2589362  -1.3431966   1.0094799   0.5082729
   0.3479979   0.0732816   0.0087283   0.0816979   1.0474182  -0.1106398
   1.1482024   2.2097123   0.6354070   0.0586369  -0.4088219  -0.1705655
   0.9761098   1.6489381   1.7999578  -0.9600471   0.2085245  -0.0225392
  -0.0671035  -0.0343599  -0.0694705   1.5563344  -0.0158691  -0.5413730
  -0.4987693   0.5100242  -0.0791885   0.5656198   0.1999926   0.0827443
  -0.5355596  -0.0238209  -0.4668163  -0.0059743  -0.8538279   0.1184061
   0.1979054   0.1342333  -0.3398536   0.8887779  -0.5360880  -0.1307082
   0.0836696  -0.2072421   1.6444017   0.1494500   0.1159215  -0.2513041
   0.5229366   0.4420799   0.5830405   1.0616155  -0.6930347  -0.7341231
  -0.1043534   0.0868099  -0.0447015  -1.9193887   0.8395764  -0.2538375
   1.3939924   0.0809994  -0.6347299  -0.4775810  -0.1331615   0.0811785
  -0.2434141   0.5773662  -0.4153167   0.6980779  -0.2928624  -1.0582702
  -0.1387772   0.0250277   0.1535727  -0.3586659   0.8183672   0.2425894
   0.8043985  -0.2142304   0.5914968   0.2586831  -0.1198095  -0.0262087
   1.5387002  -1.1661875   1.0224670  -1.0825981  -0.3178647   0.7041056
   0.1263140   0.0048718   0.3344444   0.2523505  -0.1163042  -0.6299610
  -0.1285609   0.3387638  -0.1573263   0.0640243   0.2904601   0.1396299
   0.4398682   0.4750997   0.0681926  -0.7943166  -0.2347466   0.2921717
  -0.1991436  -0.1277728   0.4005648   0.8120815   0.4493757  -0.9260798
  -1.0172651  -1.3171039   0.4137686  -0.0276553   0.3132042  -0.0675471
   0.3641584  -1.2491028  -0.2795026  -0.4474947   0.2048283   0.0016959
   0.1898181  -0.0856076  -0.0621036  -0.1384547   1.0806128   0.5916094
   1.4771658   0.0602912  -1.6041284  -0.1231399   0.1059511   0.0080386
   0.4101787  -0.6625162   0.4224475  -0.3453585   0.1086364   0.4194088
   0.3719057   0.0648881  -0.1206446  -0.1933089  -0.5242942   0.8985885
   1.1672239   0.7030017   0.0785445   0.0147180  -0.0751326   0.0499627
   0.9501445  -0.3194257   0.2933225  -0.4160576   1.3555342   1.5829591
   0.1378905  -0.0579335   0.2138071  -0.3332705  -0.8355853   0.0412467
   0.4021555  -0.3717671   0.3249457  -0.1072633  -0.0261975  -0.0421240
  -1.9450901  -0.6490469  -0.5963947   0.3004939  -2.1917815   0.6821091
  -0.0520109  -0.2368315   0.1248425   1.3353697   0.3963770   0.6051309
   0.2473879   0.3365665   0.9094055  -0.0041570   0.2459603  -0.0011072
  -1.3592672   0.2908026  -0.1826314   0.6696199  -0.0121778   0.9514931
  -0.1699151  -0.4109085  -0.2091528   1.4744400   0.5821791  -0.2858712
   0.0962721   0.4023466   0.7356318  -0.2275535  -0.1166644   0.0713184
  -1.5888697  -1.7132394  -0.0908186   0.2811904   1.4614789  -0.4713595
  -0.2691078   0.0021819   0.0212709   0.9629051  -0.1619622   1.5862287
   0.5248212  -1.2961358  -1.5750684  -0.3211519  -0.0163209  -0.3456117
  -1.3266234   0.3029476  -0.9158283   0.6350444   1.1165566   0.0494959
  -0.2849905  -0.2242516   0.1684531  -0.1811437   1.3129746  -0.0321194
  -0.6263913  -1.0940542   1.9369298  -0.1172507  -0.0704755   0.1104692
  -1.5227355  -0.4710553  -0.7911856  -0.8874772   1.4461677   0.0383383
  -0.0474961   0.1184044   0.2306787  -1.6302243  -0.5153934  -0.1514412
  -0.2605902   1.4526610   1.4960535   0.0076521  -0.0718951   0.0165699
   1.7527201   0.2442422  -0.0974246   0.5926291  -0.9247450   0.5466291
   0.2203363  -0.1069658   0.2187252   1.6118505   0.6410511   0.5359879
  -0.3675312   0.2737633  -0.7252096  -0.2489735   0.4431801  -0.2697057
  -0.1237845  -1.0641935   0.2029685  -2.3326836  -0.1395270  -0.0574848
   0.1135526   0.0740812  -0.0620953  -0.7031409  -0.0327119   0.3046887
   0.1811334  -0.1809285  -0.9794697  -0.1062052   0.1220830  -0.0290282
  -0.5224561  -0.1680392  -0.3315588   0.2060254   0.7893634   0.2328561
   0.1716136  -0.1943181   0.0584897  -0.7108099  -0.2270482   0.5342968
  -1.7744714  -1.3041924   0.4607467   0.1225163   0.1654041  -0.0875030
  -0.9460514  -1.0060436   0.2927764   0.3132796   0.6160065  -1.4408514
   0.3031415   0.1404896   0.2606155   0.7085803   0.9267431   0.9175729
  -0.0670336   0.1936664  -1.1725053   0.1188163  -0.3182720   0.0772851
   0.5201368  -1.0421618   1.3587239   2.3181205   0.7842598  -0.5560969
  -0.0927989  -0.2285540   0.1494573  -0.0180636   0.4038131   0.0934557
  -0.7263871   0.3405720   0.6611086   0.0746292  -0.0466789  -0.0177905
   0.5884967   0.6512300   0.2294191   0.4224690   0.4196794   0.3264542
   0.2597676   0.0904107  -0.2755391  -0.0103335   0.5484402  -0.8683056
   0.7516273  -1.0369819  -0.8574119  -0.0224567   0.3624585   0.0749322
   1.3705454   0.1977008  -1.2008841   0.8946207   0.1743220  -1.5013536
  -0.2658898  -0.0846123   0.1741415   0.5452400   0.0169350  -0.4859010
  -0.3782349   0.1099965  -0.7515467  -0.1101877   0.0134127   0.0344372
   0.0290090   0.2853740   1.5167791   0.3744742   0.3525932  -0.4726602
   0.0757691  -0.4064756   0.3651894  -1.5266050   0.0708493   0.3112004
   0.3735143   0.6561637   0.8106725   0.0012836  -0.3254236   0.2932256
   0.3149677   0.3335901  -0.3718361  -2.2127478   0.7782463  -0.6849012
  -0.1359886  -0.0555181  -0.2852705  -0.7938444  -0.2559149   1.2061560
   2.1287656  -0.1196456   0.8749890  -0.0925029  -0.1201641   0.0107683
   0.5606089  -0.5404494  -0.6171833  -1.2517444  -0.6151093   0.9123004
   0.0671840  -0.2985187  -0.2385379   0.5222744  -0.3513644  -0.0663321
   0.1159694   1.3104978   0.8545365  -0.2375361   0.0037422   0.3367155
  -1.1696881  -0.1538951  -0.1141151   0.6220344   0.3189359  -0.5005283
  -0.2340235   0.1431262  -0.0809544   1.7841839  -0.5072336  -0.2310656
   0.1605491   0.8329684  -1.0838358  -0.1447643   0.0272484  -0.1951826
  -0.2523123   0.9351299   0.6536056  -0.5503241   0.8489165  -0.3364573
  -0.1370146  -0.3054323  -0.0424099  -0.8453529  -0.8897247  -0.3439948
  -1.3862120  -0.3687243  -0.6727400  -0.0211437   0.1727756   0.1083135
   0.5781562  -0.0981425   0.2897431  -0.5211949  -2.6597347  -1.5612448
   0.0343185  -0.2829218  -0.0353299  -0.5169693  -0.7066128  -0.0788120
   0.7228032   0.6855767   1.1075797  -0.0889627  -0.1426331  -0.1393419
  -0.0023893  -1.1938710   0.0445733  -0.2908123  -0.4557026  -0.3159795
  -0.1402314   0.0064396   0.0552293   0.3760599   1.2548624  -0.1415434
   0.1555150  -0.1785377   0.7881237   0.0363197  -0.0394827  -0.0758442
   1.0759594  -0.1910683   1.0219989   0.9934419   0.7577294   0.5239712
   0.1789171  -0.0355684  -0.2810214   0.8721104   0.1398020   0.3968180
   1.7593074   0.3437733  -0.1204969   0.2441879   0.1087416  -0.0660499
   0.0615753  -0.5654225   0.0257289  -0.0232604   1.1881658  -1.7680198
  -0.1853138   0.0508231  -0.4570868  -0.2479091   0.7076297  -0.0897177
  -0.8302573   0.2309329   0.6131067   0.3215900  -0.0906031   0.0325654
  -0.1364142   0.9674934  -0.3166010   0.0949455  -0.2071421   0.2695878
  -0.1207388  -0.0734290   0.2282488  -0.8843228   0.6556687   0.2395768
   0.0429306   1.1905819  -0.1725685  -0.1793429  -0.1037437   0.2197567
  -0.8539308   0.2128729   0.2805865  -0.2187631  -0.9555877  -0.7766123
   0.0263248  -0.1411678   0.2087406   0.3916363   1.1816368   0.4105267
  -0.8355522  -0.1445934   1.2855059   0.3531452   0.0541101   0.5370399
  -0.5997121  -0.1471573  -1.4811220  -0.0196098  -0.3452376   0.1352128
  -0.1088448   0.0663190  -0.4932826  -0.5348845  -1.6936164  -0.8417830
   0.2503048  -1.3847729   1.0728189  -0.0134937  -0.1161356   0.5159757
   0.9243133  -0.6176750   0.0190164  -0.5504065   0.0811950   0.5912659
  -0.3359717   0.1834369  -0.0655777   0.0289554   0.1850443   0.6894365
   1.8138254   0.5870677  -1.2490584   0.4720446   0.1880515   0.1442461
  -1.4089926   0.0765837  -0.5310040  -0.6846533   0.3169931   0.8754220
  -0.1965918  -0.2535563   0.0510120   1.4826974  -0.4777397  -1.5405555
  -0.2632214  -0.7080964   0.2308882   0.1603435  -0.0948818   0.0296825
  -1.0992705  -0.3564100  -0.4367288  -0.0427927   0.6803600  -1.0302697
   0.1603450  -0.0689450  -0.1779872   0.2540507   1.7054396  -0.3915199
  -0.2732623  -0.2154020   0.4592958  -0.1486435  -0.2213727   0.0111344
   1.0125587   1.2451149   0.3277005  -0.0748518  -0.1742304   0.0826356
   0.1912409  -0.0148717  -0.3876030   1.2852328   0.3119692  -0.8809474
  -0.1154027  -0.4872318  -0.0743522  -0.0426915   0.0230062   0.2585321
  -0.5685556  -0.1355475  -0.4745706   1.2718159   0.2346194  -0.1804571
  -0.3633674   0.1446573   0.0182313   0.9822233   0.6332566  -1.7716489
   2.0203218  -0.3117168   0.6678255  -0.0670791  -0.1563703   0.4275996
  -0.4959306  -0.6200398   0.5177684   0.5710497   0.9904076  -0.6138247
   0.1113110  -0.0242007  -0.2802518   0.9236341  -1.1587700  -0.6884527
  -1.3676007  -0.9682684  -0.2402807  -0.2023331   0.2059956  -0.0767561
  -0.7804679  -1.2954741  -0.0690783  -0.5392759   0.7054368  -0.6712840
   0.0308032  -0.2524498  -0.1332643  -0.5212269   0.6375022   1.0973752
   0.0631097   0.2205836  -0.3696842   0.2479225  -0.1240972   0.2709213
   0.9560552   0.3554592  -1.0038425   0.3172399  -1.6686769  -0.0321001
   0.1849567   0.1905054  -0.1275116   1.4687155  -0.5283245   0.4194261
  -0.9987301  -0.8971129   0.9501531   0.0345615  -0.0284159  -0.1987722
  -0.2609888  -1.4725406  -2.2055864  -1.0798976  -0.0317536   0.4996901
  -0.1298268  -0.1242888   0.1457020  -0.4404740  -1.0182688  -0.2250176
  -0.2952040   0.5303374   0.5944163   0.3161519   0.0759238   0.0412401
  -0.0110088   0.7004551   0.5082979  -0.5983716   0.8122487  -0.8577243
  -0.1836824   0.0079008   0.1811091  -0.2120926  -1.0475168  -0.2214357
   0.0038211  -0.4242270   0.4989041  -0.0471441   0.3015343  -0.0304424
   0.2912464   0.3251860   0.5398898  -0.1604445  -0.7245942  -0.5920348
  -0.5776145   0.4588214   0.1461017   1.6194184  -0.8214420   0.2555979
  -0.1032098  -0.5918693  -0.0754993   0.0873992  -0.0382492  -0.1410806
  -0.5242174   0.5830007  -0.2711592   1.5608863  -0.0127199  -0.9651367
  -0.2289382   0.0717052   0.0097841  -0.6487218   1.6620861   0.0062634
  -0.4826567  -0.2657627  -0.2559930  -0.1646874  -0.1737676  -0.0938557
   0.4469888   0.3421245  -0.2985671   0.1111738  -0.6276460   0.9049976
  -0.0081568   0.0910886   0.1345624  -0.2015138   0.0701092   1.0175298
  -1.1404936  -0.2958686   1.2118073  -0.1508489  -0.2059099  -0.1437772
  -0.7540722   0.9201766   0.8223596  -0.0812327   0.3366699  -0.3503128
   0.0088455   0.0884487   0.2424466  -0.4423130   0.2096333   0.9986312
  -0.0353473  -0.4195715  -0.3672648  -0.1180931   0.0018094  -0.0770737
  -0.0231238   0.1596887  -0.3031727  -0.0804974  -0.3906921   0.5143890
  -0.0749039  -0.2137141   0.1622330   0.4735192   0.0685316  -0.0012576
   0.5883473  -0.5652696  -0.6052055  -0.2489991  -0.0009317  -0.1237917
   0.9837953   0.7037777   0.2543037  -0.8255420   1.0435579  -0.0620663
  -0.2330320   0.0568657   0.3790452  -0.5087325  -0.8997015  -0.0479439
  -1.1986939  -0.0083249  -0.0366271   0.1499052  -0.0162446   0.1244736
   1.2087748  -0.7156487   0.5957754  -0.3613233  -0.2508347  -0.0424834
   0.1392624   0.0806398   0.0627595   1.2614169   0.9018188  -0.5680165
   0.3331596   0.0290735  -0.8528254   0.0415912  -0.0825420   0.0014521
  -0.0038002  -1.8715503  -0.2891041  -0.4052520  -0.6246115   0.5244246
   0.0040556   0.1653766  -0.3500216  -0.2666363  -1.6844720  -0.0623699
  -0.5753217   1.5435538   0.9870251  -0.1715571  -0.0188116  -0.0303129
   0.2442952  -0.8282788   0.6460846  -1.0604093  -0.8761147  -1.8517815
   0.1056009  -0.4399661   0.0818914  -1.2640055  -0.0391358  -0.0965318
   0.2656685   0.8702055  -0.1450885  -0.0184551  -0.0601926  -0.1871632
  -0.2459653   0.0968417  -1.7409436   0.2460442  -0.5198418  -0.7823384
  -0.2160321  -0.1131917  -0.0987458   0.8295702   1.3945307  -0.3984570
   0.3426044  -0.9098893  -0.0620562  -0.3499245   0.0596345   0.1149812
   0.4745363  -0.6697573   0.3164145  -0.2488983  -0.8157712  -0.7041985
   0.0602777  -0.0213296  -0.0747389  -0.3163889  -0.7159904  -0.0511996
  -0.2176437   0.5853163   1.4947410  -0.1623693  -0.1029376   0.2077015
   1.0327832   1.7058344   0.8640285  -0.4283630  -0.0029759  -0.0589514
  -0.2020496   0.1817188   0.1794362  -0.5991652   0.0226127  -0.1238143
   0.2018217   0.1703976  -0.2505555  -0.0776984   0.0229143  -0.4492969
   0.2988577   0.2839740   0.1355996   0.2118535  -0.7680709  -0.8325187
   0.0218853  -0.1161838   0.3511421  -0.0284764   0.5310423   0.5568494
  -0.6757076   1.4451448  -0.2763729   0.1927319  -0.0359455  -0.1724040
   0.8247247   0.9007792  -0.5553735  -0.8317504   0.8352749   1.0011524
  -0.1455298  -0.0337540  -0.2381572  -0.2016417  -0.9273835   0.7482210
   1.7638003  -0.1261841  -0.8543938  -0.0671582   0.3043617  -0.1689399
   0.3171012   0.6479087   0.6461546  -0.3520168   0.0454175  -0.7395989
  -0.0765656   0.1295653  -0.1107941  -0.4894306   0.7770804  -1.0329598
   0.0876389  -0.4398298  -1.8603519  -0.0652955   0.2049919  -0.2169708
   0.0026801  -0.4481471   1.0591792   0.3264195  -0.7907833  -0.3786398
   0.0516621  -0.2839321  -0.0916202  -0.1991220  -0.3783517   0.2105073
  -0.5800883   0.4390801   0.3406422  -0.0462145  -0.0252561   0.0505648
   1.6615851   0.4888732   0.3599698   0.3583936  -0.2757213  -1.0954485
  -0.3512416   0.0381556   0.1539373  -0.6285811  -1.0300245  -0.9752358
  -0.6108093   0.2798598  -0.1901724  -0.2666417  -0.1315694  -0.1476480
  -1.8109825  -0.3133702  -0.9878029  -1.6763667   0.7688881  -0.1790265
  -0.1238297   0.1634163   0.1099330   0.0463488  -0.6285565  -0.1227772
  -1.9273397  -0.3781101  -0.7552158   0.2566948   0.2715897  -0.0177657
   0.1006044   0.3207787  -0.2170253   1.1559857   0.9914975   1.2956513
   0.1725007   0.0304224  -0.0778019   0.3633314   0.9411900  -0.4741370
   0.2559941  -0.7678671  -0.1451100  -0.1637583  -0.1360895   0.2948914
  -1.0203835  -0.9343383  -0.3803903  -0.6070014  -0.5925936   0.6164055
  -0.1792777  -0.2838871   0.0639718   1.2614059  -0.4431700   0.6673035
  -0.8215190  -0.1531424   0.0291073  -0.0853031   0.2104300  -0.5742568
   0.7814583   0.9628973   0.6349187   1.3123655   0.4322216  -0.1286751
  -0.0453925  -0.0837152  -0.0622405   0.1305704   0.9213312   1.1368799
  -0.2232387  -0.2745796  -1.0959134  -0.1743333  -0.1346024   0.5179554
  -0.5178649  -0.9993830   0.8666618  -0.1845657   1.3267878  -0.0528806
   0.1896444  -0.0047211   0.1061546  -0.2290227   0.0900555  -0.2484318
   0.5761707  -0.5435064  -0.1513414   0.1821465  -0.1111864  -0.0831523
   0.5820034  -0.9598285   0.4981343  -0.6089310   0.1581799   0.1556928
   0.0926695  -0.0642880   0.4628841   0.0647897   1.0060139  -0.3285864
   0.2734315   0.4234886  -0.4440337  -0.1286338  -0.1954832   0.1697784
   0.5162663   1.1411752   1.4587904   1.0917910  -0.4929447  -0.5367491
  -0.1155854  -0.1438133   0.0948420  -1.1559461  -1.1216359   0.1499494
   0.9745659   0.4536020  -0.2986244  -0.0008791  -0.0662723   0.0015725
  -0.9899275   0.0759320   1.4748915   0.4845745  -0.0644505   1.2124339
  -0.1152600   0.0556405   0.2969049  -1.3959101  -0.8270028  -0.7877027
   0.4262479   1.4740496  -0.2861700  -0.0350365   0.4189520   0.0982405
   0.4441770   0.9999999   0.6946094  -0.7078865  -0.5410709   0.3871126
  -0.1062679   0.1029107   0.1837492   0.1053193  -0.2744833   1.7092941
  -0.6830024  -0.3992345   0.6032161  -0.0132660  -0.0569868  -0.1985861
  -0.5758675  -0.4518869  -0.5616773   0.2341104  -0.0015317   0.1510040
  -0.1108967   0.0072964  -0.1190163   0.0273280  -0.9009546  -1.0852829
  -0.0386204   0.3551274  -0.4811282  -0.1452398  -0.2135118   0.0546037
  -0.7167795  -0.1127462   0.2286200  -0.4879167  -1.2495049  -0.4033535
  -0.1775068  -0.2278963  -0.2888916   0.2214144   0.6980113   0.2687362
   0.1664382   0.7706439   0.9499305  -0.0602628  -0.1619733  -0.0895263
   0.1385097   0.4010068   0.9011961  -0.6882489  -0.0604431  -0.5431446
   0.1005811  -0.0128927  -0.2338768  -0.7918393   0.1859652  -0.6898954
  -0.0219354  -0.4556819   0.0644439   0.1153943   0.2502982  -0.1917951
   0.8797240  -0.9184647  -0.9828920  -1.1541979   0.1041591   1.4787383
   0.0137209   0.0732245   0.1611606   0.3072343  -1.5889781  -0.8987809
   0.1854891   0.3027236  -0.9284907  -0.2457776   0.4320036  -0.1564345
   1.1861295  -0.2405991  -0.3490113   0.3361244   1.4447075   0.2722433
  -0.1555993   0.2752508  -0.0105899  -1.1613336   0.4197616   0.6280416
  -0.3693857   0.7639356  -0.4636999   0.4894066   0.0046319  -0.4635345
   0.6172479  -0.6508752   0.9775417   0.7241123   0.5770076  -0.1041676
   0.2673675  -0.0787314  -0.2517511  -0.1311193  -1.1909552  -1.2129833
   0.7819073  -1.1371217   0.7710726   0.2132506   0.0550414   0.0114152
  -0.8146402  -1.2099528   1.1331595   0.7384033   0.5738843  -0.4474850
  -0.1632136  -0.1285396  -0.0011370   0.2449262   1.5739951   0.5141684
   0.6788046   0.8324263   1.0742185  -0.2380571  -0.2825857   0.0727554
   0.2469181   0.8945839  -0.9575775  -1.8023341   0.1857431   0.2334076
  -0.4412989  -0.1272593   0.0782495   0.7683980  -0.3604688   0.5911254
   0.6088115  -0.7473406   0.5545830   0.1674695   0.0491240   0.0648406
   0.0519656  -0.3225612  -0.8160191   0.4062669  -0.8093770  -0.5024217
  -0.0873646   0.0788926  -0.0174416   1.4753482  -0.0549203   0.4602075
   0.3110735   0.0762927  -0.6373096   0.0254665   0.2523050   0.2243953
  -0.1884587  -0.2773047   0.0511582  -0.1621384  -0.8785727   0.6170101
  -0.0169705  -0.0283780   0.2296295  -0.4921080  -0.1793759   0.5226126
   0.7393047  -1.5973188  -0.8250024  -0.2280602  -0.3820111  -0.2113861
  -0.5018724   0.0950124   0.5781060   0.1026662  -0.4503882  -0.4900738
  -0.0813272  -0.0080060   0.0014306  -0.9774545   1.6350677   0.2029875
   1.3254663  -0.3590452  -1.2213786  -0.1042319   0.2946604  -0.1628356
   0.4546679   0.2938016  -0.4202611   1.0690545  -0.1004817  -1.2959934
  -0.1751029   0.1625212   0.1251331  -1.4365857   0.3372449  -1.3154593
  -0.0536002  -1.3910030   0.0843711   0.2759195   0.2959341   0.1873862
   1.6615117   0.6498852   1.1788129  -0.5681818  -0.6460025   1.0983955
  -0.1851747   0.4293922  -0.1627621   1.5507249  -0.0270086   0.1407500
   0.0014166   0.9128904   0.0583649  -0.0570837   0.1066366   0.1376269
  -0.8386480   0.8720089  -0.6723089   0.2789928  -1.3511053   0.9380165
   0.0749873   0.1533803   0.0792521  -0.1640191  -0.6696759   0.4269997
   2.1471212  -1.1160858   1.0302287   0.1575158   0.2442076  -0.0089198
   0.2834278   1.3813840  -0.7577711   0.6462006   0.9210927   0.4893422
   0.1030802   0.2602981  -0.0229281  -0.1404121   0.3165975   0.8412537
   1.2899123  -0.3646921   0.0760101   0.3241463  -0.1384267   0.0391371
   0.9909967   0.3761620   1.4585669   0.9491920   0.5507090  -1.3792989
   0.0847410  -0.1099857   0.1301813  -0.3338301   0.5214553  -0.0176400
  -0.1171828   0.3760178  -0.7565120  -0.0987055   0.0769578   0.0864322
   0.6144870   0.6701494  -0.1375500   0.1226612  -0.2619962   0.2547912
  -0.0762798   0.0394619   0.1574261   0.3522622  -0.6423983  -1.0147256
  -0.4308284   0.6157688  -1.1081787   0.1980230   0.0042946   0.2435638
  -0.0990593   0.6922289  -0.5622756  -0.2363704   0.0322701   0.1818971
  -0.0113553  -0.1121968   0.2683365   0.1390485  -0.0055450   0.9762362
   0.5984565  -0.9177606   0.2580595  -0.2035057  -0.2664319   0.0378489
   1.3723648  -1.6127306   1.7196747   0.4230643   0.6193039  -0.2046719
   0.0214822   0.2833802   0.0225246  -0.8964076   0.8158313   0.6411250
   0.3804703  -0.4010322   1.4747646   0.0395925   0.2106541  -0.1817891
   0.0667708  -1.3310859  -1.0780725  -0.2221447   0.7511165  -0.0893088
   0.0339678  -0.2663355   0.2440840   0.7920733   0.3621820  -0.4440344
  -0.1047072   0.8129363   0.8719311  -0.1452760   0.0751773   0.0731220
   0.7559696   1.4023911  -0.2595870   1.0384725   0.0073011  -1.1009119
   0.1413363  -0.0006854   0.0727191   0.5467793   1.4591022   0.3006407
  -0.4779262  -1.2314342   0.1934517  -0.0015578  -0.0475424   0.0259123
  -0.1277320   1.3698299   0.6037754   0.3781161  -0.4199047   0.5393825
   0.0826286  -0.0714004  -0.0046535   1.2610017  -1.5132914  -0.3138289
   0.3060260  -0.0912738  -0.1714395   0.1271671  -0.4017841   0.2755910
   0.2102872  -0.2723275  -0.5064058   0.7386402  -1.0803152   0.4240444
   0.2189773   0.1241916  -0.1850801   0.3964743   0.6239280  -1.0758990
   0.5614524  -0.1170571   0.9876028  -0.2611799  -0.0505136  -0.2023702
   0.1381316  -0.0020701   1.2101949  -0.7137693   1.1209687  -0.3966834
   0.2554088   0.0350982  -0.0434716  -0.2825901   0.3220438  -0.7620212
   2.0681617   0.3072664  -0.1801549   0.1400104   0.2467705   0.2967896
   0.6652831  -0.6876540   0.2248093   1.5797881   0.8207887  -0.6001803
  -0.3853529   0.2975092  -0.1905335  -0.4283924   1.7070962   0.7029150
   1.0604442   0.6643087  -0.8713729  -0.2234551  -0.1773230   0.0369914
  -0.3857192   0.4395647  -0.5125529  -1.1037927  -0.3907872   0.2221143
  -0.1251319  -0.1654961  -0.2253770  -1.1692069   1.0585634   0.1324671
  -0.1926318  -0.0162916   0.9641719  -0.3558969  -0.3448755  -0.2021876
   0.3860461   0.1348720   0.6292958   1.4059104   0.5153668   0.8013417
  -0.0920269   0.0269833   0.1413536   0.9359613  -0.4480550  -0.7764552
  -0.8746611  -0.1123704   0.2969787   0.0740776   0.0239183   0.0462769
  -0.1155989  -0.5958998  -0.3864603   0.5945900   0.2182310   0.3221264
  -0.1819289  -0.0991130   0.1268072  -0.5251836   0.7098852   1.1487275
  -0.2721745   0.3986568  -0.3755986  -0.2438478  -0.4046036   0.2665681
  -1.3538526   0.2310823   0.0800230   0.6557299   0.7422692   1.0568449
   0.4814962   0.0546571  -0.0483064   1.2213753  -0.7853733   0.9292409
   1.1169716   1.1729593  -0.5501741   0.2252772  -0.3502360   0.0047856
  -0.0816472  -0.1607298   0.9109415  -0.9427716  -0.9834281   0.3157810
   0.0742411   0.0904106  -0.0255063   0.5884895  -1.2291893  -0.4080369
  -0.9683269   1.2836798  -0.9474482   0.0170737   0.2903482   0.0006699
   0.4157314   0.8580592  -0.3197798   0.4809832   0.5575650   0.2845973
  -0.0473769  -0.0334616  -0.2529493  -0.3753232   0.1935548  -0.2797046
  -0.7660635   0.0357617   1.8257184  -0.1328102  -0.1053880  -0.2756226
   0.3257838  -1.2517073  -0.7418306   0.7407550   0.3925977  -0.5798728
   0.1692658  -0.2171308  -0.2176385  -1.5023614  -0.3098871   0.2907560
   1.1109412   0.4022818  -0.7429618   0.0519649   0.0085936   0.0283476
  -0.0668196  -1.0127213   0.3094631  -0.0080464  -1.2411302   1.2416703
  -0.2462170   0.0619030  -0.0957681   0.6093186  -0.0307423   0.3216736
  -0.4281656   0.4672439  -0.0456327  -0.1362508   0.0188854   0.1737957
   0.6323536  -0.3192503  -0.1147733  -0.1547314   0.4770559   0.8727492
  -0.1898559   0.0275327  -0.2907244   1.6973640  -1.4000809   0.5109403
  -0.4002575  -0.5610584  -0.9161429  -0.0491687   0.0804624  -0.0848204
   0.0216186  -0.0925787   0.1522121  -0.6236851   1.5911496   0.0981198
  -0.2166073  -0.0610776   0.1172376   0.4720250  -0.8162934  -0.8955702
  -0.6858935  -1.6284519   0.1355132   0.1399841  -0.2001418   0.0409610
   0.3276066  -0.6823732   0.4315847   0.0729472  -0.1629970  -1.1814778
  -0.0660571  -0.1055491   0.3516948  -0.5276079  -0.6055288  -0.5751355
  -0.0318265  -0.7351826   1.0066299  -0.4382160   0.3073192   0.1539847
  -1.2789100   0.5027317  -0.7393284   0.5366197   0.4930269   0.9237444
   0.0992552  -0.0955334  -0.2979214  -0.7536173  -1.0570278  -0.0913504
  -0.1919494   0.0916851  -1.2081038   0.2081187  -0.0672793  -0.0004307
   0.3108999   0.3698915  -1.0198637  -0.7871325  -1.9082627  -1.0215826
  -0.0153417   0.2110381  -0.0051457  -0.8850501   0.5787909   0.0352369
   0.7254995  -0.7625030  -0.3500078   0.2427094  -0.1753415   0.3836029
   0.4934750  -0.0459557  -0.0364487   0.3733339  -0.0754403   0.7170423
   0.2837160   0.1113413  -0.0473830  -0.1011972  -0.6471652   1.2588652
   0.6139724   0.8161650  -0.0391311  -0.1393469   0.0566235   0.0726548
  -0.0045158   1.3698663  -0.1482026  -0.5088605  -0.2290225   0.1998921
   0.3249685  -0.0487019   0.0381627   0.5041098  -0.4247251   1.4063236
  -0.8324172   0.2520214  -0.3407198   0.1474637   0.0570973  -0.2961620
  -0.2273479   1.0266998  -0.1613707  -0.3830043  -0.0632385   0.1019263
   0.2789743  -0.0174466  -0.0831043  -1.1808648  -0.6870089  -0.7551224
  -0.1032478  -1.5262828  -0.7816156  -0.0121533   0.2380541   0.2442098
   0.0898870  -0.5992284   0.0623035   0.1238304  -0.8400614  -0.6244015
  -0.3141388  -0.2564531  -0.1366085  -0.6365615   0.5627699   0.5785091
   1.6555978  -0.3403032   0.7688841  -0.1228156   0.1953334   0.2070077
   0.0117492   0.9917255  -1.0149661   1.1016124  -0.8150914  -0.2210921
  -0.0621439  -0.0127900   0.3408019  -0.5730971  -0.6675838   0.2364976
   0.6724718   0.0002490   1.2754726  -0.0688875   0.1468967  -0.2203294
  -1.0551513  -0.4388993   0.1806981   1.8885326  -1.0095190  -0.1158796
  -0.0292803   0.1592053   0.1718967   0.0091174   1.2454706   1.0954481
  -1.4650052   0.4546735   0.8335813   0.0223221  -0.1952211   0.2502827
   1.5103524  -1.4733628  -0.6994443  -0.7290624  -1.1262246  -0.9546402
  -0.0808890  -0.1456141  -0.2535414  -0.0894403   0.8376150  -1.4291862
  -0.9050819  -0.7725697  -0.3124970  -0.3064747   0.4118746  -0.2086651
   0.1598860   1.8776423  -0.3641497   0.4130076  -0.5933164   1.6967717
   0.1478984   0.0466161   0.0601274  -0.7963260  -0.1223368  -1.0701298
   0.1478125  -0.6286374   0.8701955  -0.2188108  -0.0933634  -0.2390179
  -0.4532115  -0.3154627   0.8080653  -0.3758095  -0.7306178   0.3179612
   0.3555513  -0.1436029   0.0402134   1.7729700   1.4481649  -0.3660200
   0.0025684   0.9553975   1.0308713   0.0694387  -0.1146176  -0.0940277
  -0.7415224  -0.0670727  -0.1149031  -0.9528251  -0.2865155  -0.8840664
  -0.1407911   0.0252823   0.1032379  -0.6619283  -0.2119446   0.7784324
  -0.2332699  -0.5613421  -0.1670505   0.1208685  -0.4619242   0.1251881
   0.8142887  -0.3025109   0.6897306   0.3660388   0.0730483  -0.5187704
   0.0488813  -0.1377137  -0.0162319   0.4109915   0.1906298   1.0696297
   0.3565080   2.0019078   0.2563696  -0.0351671  -0.0439731   0.0047483
  -0.2412652  -0.4138260  -1.0956657  -0.8845556   1.6098608   1.0311319
  -0.1540981  -0.0652703  -0.2244604  -0.3473394  -1.2671325   0.2449748
   1.5827497   0.6946042   0.4503370   0.1177900   0.3155495   0.0574713
  -1.3577777   0.8512393  -0.7843568   1.1975417   0.5145904   1.6382843
   0.0969027  -0.2187448   0.1070536   0.6212118   0.0996581   0.3528300
  -0.1553792   0.4342599   0.3563242  -0.0846276   0.0972770  -0.1152759
  -0.6429957  -0.5480701   0.0325357   1.1305085  -0.5577551   0.5546346
   0.2684289   0.0238726  -0.4576958  -1.5243218   0.2189520  -0.1172498
  -1.1822813  -0.0565264   0.3975511   0.0111824  -0.3803957  -0.3777549
  -1.0837845  -0.3559997   1.9936547   0.3176599   0.0222288  -1.4268706
   0.0056642   0.0768762  -0.1344942   0.1534378   1.6721671   0.8918670
  -0.6475210   0.2608335   0.4554480   0.1540929   0.1186573   0.0351842
  -0.2937401  -0.5293245   0.0233974   0.0869623  -0.3039105   0.5028365
   0.5757754  -0.4168246   0.0762766   0.6305117   1.2945499  -0.5254253
   0.2189889   1.2352642   0.0464027  -0.2004867  -0.3628399   0.0735198
   0.2928214   0.0301899  -1.6010435   0.1299131   0.1379359   1.1972575
  -0.1423875   0.1200012   0.1980604  -0.9281510  -1.3010534  -0.1608691
  -0.1633044   1.6151474  -0.8279029  -0.0985989   0.1883376   0.0780260
   1.5705352  -0.3699310   1.9670119   0.5486784  -0.3503094  -1.7554560
  -0.1978840  -0.4734794  -0.3057280   0.2514852   0.3100903  -0.1101053
  -1.4801446  -0.4463429   0.1064158   0.2086745   0.0997679  -0.2138465
   0.9994223   0.0846777  -0.2971110   1.0683019  -0.4402652  -0.9955733
  -0.1413005  -0.0870280   0.2764623  -0.8537694   0.2783039   2.6217442
   0.1855377  -1.5809621   1.4823357  -0.0534649   0.2773482   0.0785216
  -0.5554651  -0.0689201  -0.0200552  -1.0845935   0.9269345   0.5854681
  -0.0968421   0.3132804   0.0629899  -1.1719331  -0.4983439  -0.7234981
  -0.5175148   1.3593404   0.1743391  -0.4268821  -0.1970579  -0.0538048
   0.3617911   1.2770751   0.2813097   0.2065360   0.9005479   0.1663068
  -0.0285870  -0.0107081  -0.1451997  -0.8589570   0.8077201  -0.5469505
   0.1613619   0.0165776  -0.0457469  -0.1576160  -0.0755654   0.2364903
  -0.7187898   0.5624089  -0.1307797   0.2625828   0.3371465  -1.9629872
   0.1527854  -0.3081166   0.0550671   0.7108820  -0.1381618   1.3066133
  -0.3214704  -0.9291487  -0.4720789  -0.0159747   0.0065785   0.1007637
   0.9476291   1.1896712   0.2520793   0.0273675   0.2404433  -1.0418646
   0.0034553   0.1524362  -0.1472431   0.5949580  -0.4258911  -0.6583207
  -0.8609203   0.7239375  -0.5239071   0.1859965   0.2431578   0.3537530
  -0.0507626  -1.4237711  -0.0044526   1.1026374  -0.3280675  -0.2169547
   0.1485977   0.0086501   0.0539530  -0.8313289  -0.8278781  -0.8156604
   0.0902701   0.4090736  -1.4327453  -0.2176166  -0.3139819  -0.1257425
  -0.8426064  -0.5363464  -0.2610636  -0.4452263   1.0626494   1.4261041
   0.1517306   0.0605104   0.0150336  -0.1527959  -0.5690390   0.0605703
  -0.0166860   0.7776597   0.4819359  -0.1493541  -0.0429192  -0.1893429
  -0.7345820  -2.3843288  -1.1603973   0.0864612  -0.2898707  -0.0014155
   0.2116179  -0.1280219  -0.2465488   0.1490764  -1.2697924  -2.6069181
  -2.0255532  -0.3127379  -1.4956486  -0.0964140   0.0118620  -0.0143450
   1.0044692   0.9770702  -0.9039471   0.8141754   0.1411595  -0.4001066
  -0.0381148   0.0973377  -0.3216995  -1.4172224  -0.7106627   0.7369925
   0.6260682   0.7019884  -0.6218111   0.2790817   0.2571451  -0.2709664
  -0.2788605  -1.5209075  -0.6147937   0.1349378   0.0726042  -0.3338446
   0.2678733   0.0362393  -0.1723110   0.7972694  -1.1121078  -0.3034954
  -1.1137412  -0.3205168   0.1361272  -0.2257832   0.1602260  -0.2280227
  -0.1980236   0.4088793   0.0439923   1.1336657  -1.0642654   1.0389254
  -0.0336029  -0.0535748   0.1580796  -1.0756440   0.5587704   0.4062182
   0.7826874   0.2976049  -0.4945884  -0.0602538  -0.0009509   0.0015604
   1.0102025   0.3886207  -0.0906231  -0.2198773   0.3850617   0.1459074
   0.0800121  -0.2369723   0.1131339   0.4332227   0.9407405   0.3765371
   0.9903762  -0.0891927   0.5956176   0.3006261  -0.1766672   0.2161100
   1.0299631   0.2651605   0.5245490   0.8699337   1.5291898  -1.4918643
  -0.1239543  -0.1831621  -0.1440207  -1.7822944   0.2587889   1.1586471
   1.3298748  -0.4885249  -0.7226916   0.4755028  -0.4734277  -0.2492996
  -0.8111470  -0.0398782   0.5044538   0.3527045   0.9112801  -0.6100431
   0.0119760  -0.0263773   0.3913589  -0.9497770  -0.6710844  -0.3895426
  -0.6331273   0.6920859   0.1304723  -0.0982874   0.2464379  -0.3211962
   0.4120138   0.1144657   1.3379207  -0.1206225  -0.3013217  -0.9255322
  -0.1637496  -0.0295432   0.0226146  -0.1859572   0.0530668  -0.4530681
  -0.0935829   1.0295639   0.5858571  -0.1296890  -0.1007242  -0.0687854
  -0.4392840   0.3840095  -0.9980491   0.1447038   0.1512435  -0.1458803
  -0.0140255  -0.0246513   0.1074074  -0.4829248  -0.0707462   0.0068175
   0.7833631   0.4329579  -0.8258069  -0.1784811  -0.2396008  -0.0982655
   0.4623260  -0.5201095   0.4846386  -1.0625718   0.2616416  -0.1993970
  -0.3825267  -0.0773994   0.0414772  -0.4731052  -0.0236190  -2.2940083
  -0.1316824   0.5607833   0.5934496  -0.0870467   0.0153286   0.1336623
   1.0528483  -0.9256628   0.3295662  -2.1455314   1.0416253  -0.7395717
   0.1054284  -0.1038510   0.0160129   0.4750216   0.7817060   1.2491893
  -0.2269776  -0.1691564   1.2014279   0.3024685   0.2227749  -0.1742345
  -0.3559039  -0.9837042   0.2844985  -0.3793725  -0.8176826  -0.7498266
   0.3393676  -0.1655034  -0.0563789  -0.6789957  -0.0007149  -0.4156542
  -0.5257319  -1.7143716  -0.0833785   0.0604348  -0.0785650   0.1864588
   0.0939210  -0.4786443   1.1039858  -0.1013446   0.5196785   1.4282993
   0.2127350  -0.2662330  -0.0878111   0.1695310  -0.9673613   0.8643362
  -1.0576142   0.1606766   0.5223102   0.4949941  -0.0323811  -0.2619527
   0.0931477   1.7492213  -0.5428603   0.6504430  -0.1514997   0.1113437
   0.0518728   0.2977074  -0.1004091  -0.6748669  -0.5524679  -1.1212982
  -0.3397070  -0.3629291  -0.8995777   0.1627705  -0.1391544   0.2167649
  -0.8294586  -1.2093192  -0.6341432  -1.0117941  -1.3813505   0.2717454
   0.3733264  -0.1349736   0.0793385   1.5192488  -1.4329598  -0.0923820
  -0.4666015  -0.6124993   0.2094629   0.0179437  -0.1576045   0.2635047
   0.2170087   0.7338118  -0.2828602  -0.1950207   0.1043868   0.5155060
   0.1877447  -0.0322233  -0.0356777   0.2561903   0.1609381   0.3558663
   0.1083871   0.5810733   0.0455379   0.1039336  -0.0493333   0.0752705
   0.5310759  -0.2924983   0.4535866  -1.2609580  -0.5531916  -0.5569554
   0.0190867  -0.1174038   0.0402407   1.1147099   1.1368346  -0.3821427
  -0.6501001  -0.3801356   0.0433648  -0.0257957   0.3045973  -0.0393092
  -1.6984683   0.2361471  -0.7329004  -0.1152479  -0.6190306   0.2893924
  -0.0249931  -0.3075748  -0.0022254   0.6780915   0.0734010  -0.9219317
  -0.0559610   0.9834014   0.7682201   0.0526795   0.1094001  -0.3062604
  -0.3920909   0.0316485  -0.5928900  -0.5443862   1.2743825   0.4952454
   0.1053340  -0.1441923  -0.1196162   0.9580547   0.0774575   0.1074997
   0.6949640   0.4487582   0.0091127  -0.0517369   0.0456289   0.1063200
   0.5726596   1.1659229   0.7599394  -0.3570221  -0.6688940  -0.4499388
   0.1366210   0.0579507   0.0049543   0.9594445   0.3081534   0.1012205
  -1.1627558  -0.8071861  -0.4975589   0.3380039   0.2058171   0.4756465
  -0.1742306  -0.1501995  -0.2222664   0.8948028   0.5281706  -1.1081107
  -0.2517224   0.1704884   0.0350616   0.2557501   0.4784830   0.2094068
   1.6506815   0.2808588   1.5445470  -0.0428409  -0.0560540  -0.2119296
   0.2646881  -1.4922440   1.0338957   0.9230207   0.1529857   0.6806826
  -0.3034677   0.0384279  -0.0626910  -0.3073758   1.0426861  -0.1251419
  -0.3178198   0.1153586   0.0901218  -0.0987088  -0.1504231   0.2296058
   1.0806723   1.2603540  -0.2477763   1.1125546   0.9317245   0.2800030
  -0.5165183   0.0646554  -0.0453147   0.3391244  -1.1036330  -0.2137189
  -0.2431622  -0.2933499   1.0912236   0.1066935   0.0597706   0.0352083
  -0.5434386   0.0220843   1.1316968   0.5580809   0.7055983   0.7768536
  -0.0156192  -0.0115206   0.0355291  -0.6706887  -0.4597954  -0.9757702
   1.0459468  -1.6438614   0.5194426  -0.0176384   0.0880329  -0.2402953
   1.1127076   0.9235777  -1.3673328  -0.6531138   0.2777939   1.4625353
   0.0597628   0.0239476  -0.2685495  -0.2376571   1.2175962  -0.3113319
   2.1482940  -0.1072224   0.7105014  -0.0547062   0.0060085   0.0825803
  -0.5317510  -1.3290707   0.8419759   0.4189532   0.5306402   0.1171589
  -0.3116912   0.0864152   0.0968307  -0.2345068  -0.6177419  -0.2795717
   0.3747516   0.1816336  -1.5613225   0.1526380  -0.1271644   0.0561731
   0.8222047   0.0511632   1.3670100  -0.1003305  -2.4598265   0.1510257
  -0.1205002   0.0539179   0.2521176  -0.9088518   0.5341350  -0.4159943
   0.1665358   1.0478361   0.7134441  -0.0198527  -0.4217999   0.4078898
   0.2777893  -0.2102449   0.6806125  -0.4646751   0.5791368  -1.1575794
  -0.1555341   0.0404618  -0.1411820  -0.1755598   0.1668993   1.1741674
  -0.1781873  -0.3897496  -1.5752608  -0.0414369  -0.0454729  -0.0120108
  -0.0921793   0.5137772  -0.8507220   1.8973588  -1.0037535   0.1523368
   0.2479885   0.0711735  -0.3024381   0.1272604  -1.0857180  -0.5461240
  -1.4798981   0.1567905  -0.1069892   0.0522698   0.3378609  -0.1467023
  -1.5997409  -0.1006174  -0.3011572   0.1923664  -0.5467026  -1.1191463
   0.0168461  -0.1452473   0.3891780   0.6474219   0.5710083  -1.3552966
   1.2402669   0.7552058   0.4330818   0.1191719  -0.0450609  -0.2198790
  -1.4373252  -0.4927248  -1.0528553  -0.2406301  -0.0435045   0.1670148
  -0.0407925  -0.1265535  -0.0212152  -0.1645320  -1.2341846  -0.7197162
  -0.1583115  -1.4561360  -0.3413916  -0.1784948   0.0081281   0.0475819
   0.2298692  -0.2428141   1.0982280   0.0890568  -0.1758994   1.6210661
  -0.2511988   0.0367899   0.2041447  -1.6426700   1.3992715  -1.0801554
  -0.9648792  -0.5293658  -1.2053622   0.0317026   0.0619083   0.2220302
   0.1848795  -0.2228652   0.4858631   0.5931129  -0.0492087  -1.5821190
   0.2825995   0.0292056  -0.0268138  -0.6759149  -0.1644740   2.3404739
  -1.2205063   0.0094713   0.6210634  -0.1103720   0.4441732  -0.2450914
  -1.2594281   1.0516033  -0.3336787  -1.1080444   1.1315957   1.1919893
   0.0347813   0.0540585   0.0927467   0.0058729   0.5512624  -0.9456592
  -0.3271759  -0.4086411  -1.2472031   0.1841170  -0.1666186  -0.1336390
  -0.4801294  -0.7567154   0.1027794   0.6449215  -0.7666098  -0.1460894
  -0.5004466   0.1043647   0.1044193   0.5253425  -0.1598242   0.9895440
  -1.2058316  -0.4031857  -0.4081954  -0.3569716   0.1784329   0.4596162
   0.3080248   0.2615157   0.0031701   0.1722116  -0.2206472  -0.8516312
  -0.2494975  -0.0047793   0.3527630   1.4135770   0.6153992  -0.0105811
   0.5251634  -0.2542319   0.2353127   0.0770788   0.0655415   0.0638447
  -1.3163500   1.0614868  -0.6578403  -0.1777112  -0.1498023  -0.2009936
   0.0307755  -0.1121532   0.4260893  -1.5455524   0.6398927  -1.0189101
   0.0553350   0.8038062  -0.6536011  -0.0145381  -0.1087632  -0.3765333
  -0.1325945   1.9053909   0.4642929   0.8983399  -0.1798101  -1.2748460
  -0.1265029  -0.0435347   0.0505181  -0.0196358  -0.3195986  -0.6318470
  -1.3567812  -0.4858170   0.0167063  -0.1338879  -0.2338923   0.0830054
   0.9676211  -0.3866629  -0.3558243  -0.3461548   0.5293713  -0.6583687
  -0.0360049  -0.0031982  -0.2953660  -0.8128583  -0.7774970  -0.1394624
   0.3014834   0.8839995   1.9290588  -0.1037406  -0.1113196  -0.0221166
   2.0627849  -0.4984951   0.0825125  -0.2221429   0.4516374   0.5257902
  -0.0764124   0.1394573  -0.0178293  -0.6438441  -0.6697029   0.1781836
   0.7269687  -0.5391483  -1.0809332   0.2476308  -0.0755893   0.0098976
  -0.4205703   0.5384932   0.2120287   0.6017017   1.1345667   0.5984393
   0.0304477  -0.2096210   0.0942539   0.2961511  -0.5919126   0.3809139
   0.8061815  -0.4625306  -0.4491867  -0.0161944  -0.0972531  -0.1899726
  -0.5274536  -0.2024557  -0.4606442  -0.1192986   0.0364068   0.8524031
  -0.2141291  -0.3593052   0.1914848  -0.1607033   1.4746251  -0.8150205
  -1.1206235  -1.2528652  -0.4912952   0.1832290   0.3878077   0.0176573
   0.0688355   1.2117541  -1.3224934  -0.8427325   0.1102797  -0.7194602
   0.0389488   0.2857906   0.0368883  -0.6839598   0.6657049   0.2302904
   0.1466779  -1.3534892   0.4189244  -0.1324135  -0.0893204  -0.0381230
  -0.7628493  -0.3992571   0.3208315  -0.6725178   0.6996314   0.1093928
  -0.0317733   0.1557225   0.1434803  -1.2138258  -0.9050910  -1.7672049
   0.6849547  -0.5702719  -0.0706046   0.1396077  -0.0109352   0.0562466
   0.3891434  -0.1814106  -0.1226341  -0.5305501  -1.1471044   0.2499602
  -0.2509898   0.0111396  -0.0759633  -0.1010451   0.4070593   0.5940161
  -0.7130771  -0.1263948   1.2152512   0.0852795  -0.1074161  -0.0303927
   0.8146388  -0.5730070  -0.6798159  -1.1061106   1.6420890  -1.1764328
  -0.1308559   0.0020925  -0.1772704  -0.0010772  -1.0877417  -1.2350538
  -0.1365129  -0.8859481  -0.0140511  -0.2233436   0.1339592   0.3447012
   0.7854987  -0.4471110   0.2381607   1.0299543  -0.1159773  -1.4739844
   0.3704501  -0.2392902  -0.0459440   0.4293135  -0.0794642  -0.1611168
  -0.5545821  -0.0921677   0.1125652   0.1857375  -0.2168175  -0.1800646
  -0.5514278  -0.1669810  -0.3026566   1.2526617  -0.4013541   0.4285339
  -0.0303611  -0.1381221  -0.0888461   0.4681370   0.3527146  -0.4731506
   0.1198285  -1.1552448   2.0038059  -0.1931900   0.3419460  -0.1584319
  -0.2188518  -0.1995768  -0.6107817   1.1791284  -0.2873881  -0.8032527
   0.1470460  -0.2653392   0.0601394   0.6357596  -1.3894933  -0.3723108
  -0.2788758   0.0666300   0.3506501  -0.1135854   0.1397135  -0.1719729
  -0.4959749   1.5606391  -0.3694664  -0.5191922   0.0587709   0.1082763
   0.0682557   0.1773930   0.0839035  -0.3110688   2.2779179   0.9264423
  -0.5526698  -0.8056403   0.2005221   0.1544276   0.0036782   0.1162214
  -0.3933854   0.2744413  -0.6761409   0.9549802  -0.1944755   0.2379548
  -0.0174599  -0.1639135  -0.0285694   0.3547164   0.0435204  -0.0002324
   0.0717010  -0.8478193  -0.3855229   0.0742995  -0.3799771  -0.0516869
  -1.0280041   0.2133482   0.2621959  -1.4320016   0.6884173  -0.4292855
   0.1622405  -0.1804769  -0.2479954  -0.1833330   1.3103901  -2.5483801
   0.3560124   0.1020707   1.8796142   0.2575786   0.0221515  -0.1816341
   0.7342749  -0.2863539  -0.6680117  -1.2617621   0.3840920   0.0032518
   0.3016007   0.1529397  -0.2298356  -0.5394789  -0.3421466   1.0738552
   0.8340806   0.1811804   1.2846429  -0.0517241  -0.0060901  -0.0450593
  -0.2254475   0.4169878   0.6876212   0.4067791  -1.3773718  -1.4704597
   0.3490415  -0.0646149  -0.0115331   0.2596206  -0.3054242  -0.5799178
  -0.4241313  -0.2102438  -0.8915287  -0.1753218  -0.1367228   0.0886162
   0.2333499  -0.9173951  -0.0002648   0.1261422  -1.0842351  -0.1833286
  -0.0180469   0.3184162   0.0545114  -0.0294872  -1.3774763  -0.3442527
   0.3474520  -0.3124093   1.1448424   0.0451197  -0.1745527  -0.1205744
  -0.7539755  -0.1448868  -0.1611780  -0.6255918  -0.1676323  -0.9652249
  -0.0842796   0.0964610  -0.1579221  -1.1131561  -0.7769105   1.3092455
   0.9234095   0.0838248  -0.5070062   0.0216485   0.2084881   0.0665947
   0.2602444   0.2310455  -0.0088731   0.3075185   0.4249313   1.9471792
   0.0859509   0.1552641  -0.1411105  -0.1131598  -0.1242759  -1.0855801
   0.2080358  -1.0861219  -2.0264039  -0.0155786  -0.0354257  -0.0713128
  -1.0308677   0.9765120   0.6378554  -0.0431427  -0.9963241   0.4224817
   0.0937138   0.0304131  -0.0723891   0.0804703  -1.0138866   0.6180677
   0.0738657   1.0654830  -0.0573851  -0.0700733   0.2399561  -0.3730495
   1.4676787   0.2001954   0.1701048   1.9097735  -0.6969842  -0.1935584
  -0.1910831  -0.0932695   0.3466354  -0.0739404   0.7777455   0.5993702
  -0.5558188   0.7463340  -0.4777634   0.0506674  -0.1419616  -0.1049934
  -1.6178874   1.2660090   1.0680028  -0.7215651   0.2876114   0.5855201
   0.0103038   0.0909632  -0.1291787  -0.1109401  -0.1863439   0.4917740
  -1.9766148   0.9182870   1.1961844  -0.2939768  -0.0044403   0.0578710
   0.6042619  -0.8280475   0.1228478  -1.7239980   0.3155270   1.0860476
   0.1358230   0.0353032   0.0705143  -0.1828275   1.0374126   1.1519520
   0.7031187  -1.0516270   0.4265696   0.0046559  -0.1936686   0.1441163
  -0.0051141   0.9910315  -0.7708879   0.7872385   0.1684577  -0.5400552
   0.1164558  -0.1428575  -0.0150408  -0.4288877   0.7876114  -0.5611873
  -0.6920335  -0.9879532   0.4824732  -0.1699639  -0.2613657   0.0446622
  -1.4357226   0.2560916  -0.4159442   0.1332266   0.1817133  -0.1927211
   0.0217043  -0.0154769   0.0125667  -2.3452656  -0.1940779   1.8520975
   0.8312195  -0.2129763  -0.4397412   0.0222908   0.1792563   0.0041553
   1.3800817  -0.5017138  -0.0816880   0.0450812  -0.5168219   0.3946930
   0.1520108   0.2187434  -0.0958493   0.9240056   0.0860504   0.5985577
  -0.4945735   1.4213675   0.1940072  -0.2409347  -0.0347332  -0.5129519
   0.2977064   0.5231114  -0.2024524   0.5141182  -0.3027717   0.6136037
   0.2215233  -0.3020318  -0.3783900  -0.0767243  -1.2222971   0.3333578
   0.5746763  -0.0486043   0.8469010  -0.2217606   0.3076946  -0.2726782
   1.0796665  -0.0963274   0.0552202  -1.5483760   0.6292115  -0.4530072
   0.2724773  -0.1872709   0.1224738   0.1324325  -0.4007061  -1.4163053
  -1.0450372   0.7606153   0.4681793  -0.0484483   0.2130911  -0.1489727
   0.4997124  -1.1947945  -0.0942409  -0.3436730  -0.4115103   0.8097875
   0.0907083  -0.1198990   0.0676878   2.1014798   1.4859241  -0.2062537
   0.2771629   0.8270460  -0.8816072   0.2186028   0.1314865  -0.3594056
  -0.1348856   0.7984712  -0.6868411  -0.3490857  -0.7433972  -0.2159860
   0.3392759   0.1299763  -0.0168590   0.4319125  -0.1055577  -0.9468331
  -0.6045852  -0.7179784  -0.6569409  -0.0720508  -0.2984071   0.0620852
   0.0352031   1.2701954   0.4129188   0.0614437   0.2634086   0.0112247
  -0.0780601  -0.0177831   0.0245851   1.0770828   0.3390914  -0.5504096
   0.0312245   0.2244394  -0.3906580  -0.0461041  -0.0630304   0.3751471
   0.1281962   0.1911136  -0.8759946  -0.0694355  -0.3950860  -0.0934198
   0.1373694  -0.2590088  -0.2455636  -1.7309719  -0.9012028  -0.0735681
  -0.7024661   1.5949992   0.2452767   0.1986057   0.2138194  -0.0754667
  -0.4506751   0.5905830   0.3603810   0.5055498  -0.4574279  -1.6524464
   0.1039748   0.0366065   0.0345361   0.9282180  -0.9292272  -0.2976255
  -0.1264964   1.1806927   0.9973535  -0.0060404  -0.0488230  -0.2993075
   0.2053304  -0.4971553   0.4655692  -0.9701521   0.5658730   0.3288289
   0.1830263   0.0483801   0.0389509   0.9132500   0.5505018  -0.5611464
  -0.5634156   0.8812672   1.6019084   0.0362189   0.0324764  -0.0566190
   0.9327031  -0.8809472  -0.0690634   0.4756378   2.3710284  -0.3739214
  -0.2410298  -0.1707156  -0.1233706  -1.3661888   0.0653172  -0.8956297
   0.6473544   1.2630947  -0.1623376  -0.1222423   0.3983101   0.0601761
  -1.2040826  -0.8870971  -0.7405952  -0.6514124   1.4789269  -0.0340308
  -0.1649889   0.0766878  -0.1087888   0.1096931  -0.2523661   1.5315763
  -1.0702800  -0.0981638   0.2850122   0.1773424  -0.0513052   0.0343430
  -1.1477849   0.5147297   0.6169413   0.0460728  -0.6867369  -0.4105910
  -0.1441493  -0.1105280   0.4134712   0.7776453  -0.0772426  -0.8962028
  -0.8978086  -1.4053135   0.3824121  -0.0886142   0.2168029  -0.1881734
  -0.0018607   0.0274970   0.0861828  -0.7860766  -0.3737455  -0.7877812
  -0.2015139   0.0503218  -0.0868132   0.5584151   0.6034983   0.9187875
  -0.7217256  -1.1043723   0.0847742   0.0965008   0.0813826  -0.1181401
   0.2735645  -0.1545905   0.9647762  -0.0471642   0.8331959  -0.5781472
   0.2144786  -0.1749050   0.0773828  -0.0359941  -0.4138060   0.4912057
  -1.5066762  -0.3698511   0.3492645   0.0143896   0.0368832  -0.3777593
  -0.4991985   0.1513315   0.8065040   0.5833353  -0.4566565   0.8719886
   0.0130679  -0.0670771  -0.1591114   0.3858517  -0.3447233   1.0491120
   0.3207261  -0.1403668   0.4947692   0.1698484  -0.1793222   0.1518514
   0.2961333  -0.0688506  -0.3213425  -0.3416454   0.6241187  -0.7698322
   0.1193938   0.0319388  -0.0693781   0.1119486  -1.1541497  -1.2261357
  -1.0157307   0.6244414  -0.6189480  -0.1088795   0.1553979  -0.0617315
  -0.2045113  -0.6775286   0.6318435  -1.5325747  -0.0419422  -0.4347513
   0.3182108   0.3970160   0.1795314   0.7985660   0.5873307  -0.4885662
   1.9015777  -0.3084853   0.8501344  -0.1020865  -0.4972840  -0.2074992
  -0.7775614   0.5752317   0.3700650  -0.4869944  -0.6546893  -0.0711215
  -0.0450005  -0.0350375  -0.1319221  -0.3506473   0.2803993  -0.2645730
   1.5562285  -0.0295230   0.1359629   0.1581697  -0.3569413  -0.0426701
  -0.7787129   0.3722536   0.1823476  -2.1133463   0.3414625   0.2074114
  -0.1800433  -0.1381467  -0.0863250   1.3442707  -0.7233905   0.4966768
   1.3352903  -1.5785248   0.0674646   0.2819454  -0.2144862  -0.0253472
  -0.4805999  -0.8869098  -0.6966890   0.5480378   0.0260233   0.8412768
   0.2885169  -0.0325099   0.0215753   0.5285477   0.0357363  -0.1987069
   1.2145351   0.5139021   1.1523385  -0.2095903   0.1972835   0.1810598
  -0.1447932   1.0671357  -0.1507878   0.1457133  -0.1537026   0.9203551
   0.1715712  -0.1861626  -0.0572265  -0.1633829   0.5328273  -0.3201625
  -0.5216537   1.0444347  -0.8133518  -0.0151446  -0.1326957   0.1764263
  -0.4754544  -0.7320328   0.9089507   0.8527616   1.1773980  -0.4545442
  -0.0605006   0.3418036  -0.0754694   0.2623427  -2.0377405  -0.1036354
  -0.0911639   0.5181903  -0.2814944  -0.1043630   0.1460374   0.0153311
  -1.1441633  -0.1386225   1.7609137   0.4244891  -0.1649061  -0.8027639
   0.1950770  -0.1436493  -0.1703030  -0.3828003   0.1584311  -0.6859331
  -0.3686924   0.5685909  -0.5190749   0.2908631  -0.0661755  -0.1763307
  -0.4331822  -0.0424926   0.2179440  -0.3182376   1.1748177  -0.5160769
   0.0439388   0.2038003   0.0188894   0.2701661  -0.9225825   0.9742348
   0.3943256  -0.3872510   1.3983259   0.0797205  -0.0861696  -0.1837629
   0.8984256  -0.0838307   0.6184251  -0.2271907  -0.8495501  -0.0168258
   0.2634871  -0.0355669   0.0862412   1.2039613  -1.0355870  -0.2778982
   1.3303913   1.3951335   0.7465045  -0.0774397   0.1202571  -0.2338669
   1.7437929   0.4229265   0.2083446  -1.5804189  -0.2367649   0.8471466
  -0.2112416  -0.0726713  -0.2087990   0.7817215   0.1987105   0.7074533
   0.3900902  -0.7101223  -0.2341080   0.2142230  -0.0321016  -0.1227273
  -0.9006178  -0.9018146  -0.9355316   0.9329701  -1.2152566   0.5343844
   0.0050178  -0.0048952  -0.1151588  -1.1098845   1.1852825  -0.0069452
  -0.2358427  -0.7688491   0.0624556   0.1881920   0.2020099  -0.1111626
  -0.3733765   1.9551469   0.0473826  -0.2807052  -0.8437931   0.2487179
   0.2599134  -0.2352893  -0.0440992   0.2086488   0.5021220  -0.6966810
   0.6817828  -1.0024921   1.3057615   0.0644769   0.0454484   0.0415891
   0.1682878  -0.4441026  -0.0220449   1.4590538  -1.4096639  -1.5877171
  -0.0581248  -0.0583521   0.0854276   1.0168442   1.8750653   0.8736039
   0.7520645  -0.3128867   0.8506476   0.0532094  -0.0327486  -0.0446490
   0.1328764  -1.1519972   0.4549588   0.9356444  -0.6791301   0.4451958
  -0.1204296  -0.0596495   0.1817309   0.1272262   0.2247341   0.3662649
  -0.0627497   0.0336856   1.3676555   0.3666326  -0.0076858  -0.2314820
  -0.3130754  -1.0559460   1.0882237  -0.0341412   0.5571668   0.4680488
  -0.2188140  -0.0999074   0.2232487   0.2168659  -1.5241086   0.7424515
  -0.0378642   0.1375204   0.6036898  -0.1220668   0.1628852   0.5770463
   0.9597202  -0.5170181   0.9285927  -0.2253723  -0.4711972  -0.8644991
   0.3335299  -0.2679372   0.1526067   0.9687361   1.5246186   0.2229967
   1.3064806   0.8136125   0.1302550   0.1035627  -0.2742118   0.2026332
  -0.4482087   0.2586675  -0.3566684   0.8028832  -0.4508667  -0.2334881
   0.1042350   0.0721641  -0.0671967  -0.0770832   0.0097461  -0.9328082
   0.8467544  -0.1076991   0.4257550   0.1198037  -0.1677199  -0.1049854
   1.1475573   0.7073807  -0.8117619  -0.4365330   0.7693604   0.3255304
   0.1856385   0.2433931  -0.1110823   1.4907588  -0.0437240  -1.3129971
   1.2270944  -0.0518588  -0.3206967   0.0239295  -0.0830989  -0.0550161
   0.4566126   0.8405846   1.0570315  -0.1569922  -0.4995513  -0.0220183
  -0.1596473  -0.3237933   0.1905698  -0.6411967   0.2838916   0.1007503
  -0.1055396  -2.0579102   0.7684672   0.1002011  -0.1750524  -0.1416033
   1.2919668  -0.9768347  -0.1592350   1.0349104  -1.1268728   1.2137338
  -0.1342593   0.1719337  -0.1900328   0.2595452   0.2346141   0.0777232
  -0.0644459   1.2458593  -0.1508097   0.2911815   0.0128643   0.0268127
  -0.6403227  -0.5990503  -0.5586784   0.0651548   0.0814749   0.9070632
   0.0920461   0.0190605   0.1856894  -1.3369309  -1.5153041   0.4608386
   0.2411480   0.2256936  -0.7437579   0.2596893  -0.1923821   0.1326651
   0.5174462  -0.1599665  -1.1505250   0.8127240  -0.1972665  -0.3579699
  -0.0780247  -0.0059487  -0.1314607  -1.3003005   0.0620277   0.6898969
  -0.7518193   1.1456116  -0.1022616  -0.1131698  -0.2492719  -0.2098318
   0.2194083  -1.5705780  -0.4649732  -0.1962082  -1.5620060  -0.7808006
   0.0284180  -0.0326795  -0.1495533   0.2795265   0.1558010  -0.1450521
   0.4963027  -0.2478396  -0.5941666   0.0243069  -0.2237218   0.1609714
  -0.2282452   0.3963694  -0.5882765   0.4314283  -0.5752096  -0.4166075
   0.2094849  -0.1236132  -0.1045642   0.3093022   0.1369254   0.0661613
  -0.1372396   0.3461377  -0.1188756  -0.1423156   0.3033996  -0.1438899
  -0.1004134  -0.6868430  -0.8002046  -0.8715066  -0.5182486  -0.7713802
   0.0758214  -0.2328719  -0.2117625   0.5625082   0.6905978   0.0199461
  -0.3921708   0.4415880  -0.3182985   0.0404517   0.2173176   0.4004524
  -0.7531738  -1.3933269  -0.1575652   0.0807161  -1.0072978   0.5411513
  -0.1723633   0.3126937  -0.2924177   0.7746568  -0.1093104  -0.3349984
  -0.8662950   0.5845807  -0.0641488  -0.2785688   0.1901626   0.2234347
   0.1291181   0.0501742   0.2127665   0.2412922  -1.8764803  -0.0228172
  -0.0890317  -0.0482216  -0.2133476  -0.7066118   0.1075364   1.3057327
  -0.7906762  -0.3243581  -0.2519137   0.1333138  -0.2215706  -0.0047898
  -0.7371708   0.4516200   0.5092454  -0.6413674  -0.8885809  -0.1803490
  -0.0156759  -0.1177383   0.1865398  -0.6394925   0.2720203  -0.3982355
   0.2324200  -0.8277329   0.3737225  -0.0710032   0.1149714  -0.1710359
  -0.2643263   0.4147103   0.5090927   1.2819132   1.2543411   0.3886755
  -0.1189205  -0.0421970  -0.1051334  -1.4507647   0.0229498  -0.1684787
   0.8056076   0.4144979   0.0217306   0.0160396   0.1023779   0.2153886
   0.8104558   0.5053647  -0.7687957  -1.2130158   0.1404307  -0.5925016
   0.0642513   0.2844400   0.0499010   0.6337286  -0.4989360   0.0584625
   0.3399879   0.3379844   0.7624052  -0.1131046   0.2914905  -0.1325524
   1.1775651   0.5427529  -1.3864232   0.8630720  -0.7126613   0.8999959
  -0.2291568   0.3667949   0.3451414   0.2436093   0.0551553  -1.3183951
  -1.2779964  -2.2341757  -1.5388547  -0.0423932  -0.2997822  -0.3078610
   0.5746742   0.8411588   0.4978724  -0.5782293  -0.4189296  -0.7386212
  -0.3985423  -0.0480669   0.1414297   1.2945442  -1.3653553   1.6910849
   0.3582273  -0.2794317  -0.7192351  -0.1607002  -0.1122036  -0.0557905
  -1.0109265   1.2512467   0.5461320   0.9713524  -1.1562676   0.3859605
  -0.1374520  -0.4545382   0.0555574   0.1023818  -1.4808996   0.5942714
   0.7639268  -1.5526505  -0.2511529   0.0492564  -0.2629538   0.4394688
   1.6696768   0.2405425  -1.6612420   0.9646534   1.6024324   0.2748863
  -0.3864286  -0.0015677   0.3489029  -0.4505467  -1.7283500  -1.3076020
   0.1828085   0.3877788  -0.6947349  -0.1239559   0.0023555   0.2619686
   0.4261400   0.1204183  -0.7969390   0.7227510  -1.6842607  -0.7370780
  -0.0359626   0.1219421   0.0096540  -0.7338505   1.2325494  -0.6957227
   0.1578571  -0.6982757   0.5467030   0.1781561   0.0397177  -0.0055330
  -0.8710735  -0.9581041   0.2803827  -0.6662502  -0.3065040   0.0458919
  -0.0298789   0.1417617  -0.1162951   0.1990642  -0.4793890   0.9778227
  -0.7356566   0.1593134  -1.1343818  -0.1856553  -0.1242688  -0.1037328
   0.3248620  -0.2663935  -1.1934572   1.4122785  -0.0614221  -1.0809042
  -0.1164279   0.0106669   0.2799185  -0.3693223  -0.6294290  -1.2124889
  -1.0785949   1.7972510  -0.7122083  -0.1018417  -0.0373652   0.0183737
  -1.1553116   1.3295105  -1.3286173  -0.5177361  -1.0732518   0.1372269
   0.0679718   0.0114425  -0.0859620  -0.6260502   0.1618352   0.0635222
  -0.6245767  -0.0784390  -0.0438049   0.3147165  -0.1136750   0.0529889
   0.0384110  -0.3596033  -1.4522101   0.2504937  -0.0171852   0.5864038
  -0.0128763  -0.2606167  -0.0872388   1.4785002   0.8955579   0.1644429
  -1.0157192  -0.1162998  -0.3907300   0.3079508  -0.2679768  -0.1651228
   0.7418304  -0.1513701  -0.8353730  -0.2493806  -0.4097707   0.2198589
   0.1029246  -0.2955330   0.0277888   0.7519436   0.6697689  -0.3764568
  -0.1155587  -0.8693011   1.0322546   0.2717489   0.0608644   0.1176674
   0.5808135   0.3149841  -0.9651182   0.1739497  -0.1943844   0.5513632
  -0.1175200  -0.1212684  -0.1914114  -0.5209682  -1.9210761   0.5877177
   0.6476943  -0.2088003   0.5903609  -0.2119146  -0.0029458   0.3156370
  -0.0029145  -1.0313869   0.0183397  -0.3453877  -0.3855439   0.7949921
  -0.2308612   0.0543677   0.2107906  -0.9107931   1.9936388  -0.3469420
  -0.6188004  -0.3004634   0.2914000   0.2247187  -0.1951622  -0.3439291
  -0.8455862  -0.6425763  -0.1515674  -1.5014414  -0.1164478  -1.2081219
   0.0227089  -0.0237221   0.0885446  -1.0573988   0.5193880  -0.3725257
  -0.4176994  -2.0916820   1.0187294   0.1010719  -0.1859671  -0.5363507
   0.0418123  -0.0402081   0.0424143   1.5998087  -1.2614915  -1.4080249
  -0.1922808  -0.3132353  -0.0587961   0.2094971   0.6616498   0.6643506
   1.1143935   1.3271163  -0.1048081  -0.0279138   0.0940458   0.0483623
   0.0294821  -0.7114301  -0.3584470   1.8025371   0.8799107   1.1826415
  -0.2725460   0.1076866  -0.1584155   0.2955829   0.7024465  -1.0268403
   0.5697794   0.7003715  -0.6960236   0.0389446   0.0777148  -0.0427472
  -0.9540408   0.8608121   1.4647410   0.3735034   0.5278050  -0.0351960
  -0.3893283   0.0445247   0.1257077   1.0087144  -0.6465582   0.1700975
  -0.0622862   0.0444908  -1.3533378   0.0979042   0.3290668   0.2899361
  -0.0550608  -0.9494463   0.6263909   1.0849423   1.0322635   0.7168318
   0.0005587  -0.0225586  -0.2793634   1.2647009   1.5056534   0.1666292
   0.6131040  -0.3364752   0.1418991   0.0394555   0.0502383   0.3209940
  -1.0965438  -0.0541862  -0.2631342   1.3495668  -0.2535283   0.1138655
  -0.0419405   0.0213335   0.1928375   0.0268836  -0.9864921  -0.4882109
   0.0833950  -0.5407434  -0.0956228   0.2386845   0.2850152   0.1175848
   0.3733626  -0.0420027   0.7089698  -1.1263472  -0.0797089  -1.9133317
  -0.2987718   0.1578561   0.1698496  -0.4119831   0.2064627   0.3947735
   1.7855406  -0.7778509  -1.5157245   0.1666107   0.1752438  -0.4940925
   0.6902055   0.7595535  -0.3006127  -0.4964520   0.1942300  -0.8603116
   0.0229894   0.0360270  -0.0999519   0.3917329  -0.6239513   1.5013832
   1.0496240  -1.0299278   1.3351251  -0.4438032   0.0858456  -0.1502497
   0.4509954   0.2210472  -0.2775141  -0.7413313  -0.6027238  -0.1675015
   0.3418766   0.3858972  -0.1963118   0.6758711  -0.9106572  -0.2339062
  -0.5409291   0.0396849   1.3429599   0.1072101  -0.0405714   0.1986099
  -0.3151499  -0.6749960   0.4978643  -0.3475867  -0.8208038   0.5597986
   0.0883633   0.1834007  -0.2404515  -0.0979486   0.3959963   0.6989279
   0.7411194   0.5631271   1.0093446  -0.2411346  -0.1077687  -0.2455434
  -0.5831038  -0.1442358  -0.2578103   0.9825325   0.7312990  -0.2914519
  -0.0523943  -0.0808068   0.0355889   0.0766980   1.8587279   0.0630461
  -0.7963529   0.0052851   0.6669408   0.1057059  -0.1163655  -0.0467582
   0.5200623  -1.3635374   0.1091924   0.3874329  -0.4363114   0.7891328
   0.2574403   0.1741257  -0.1151406   1.0057815   0.1348812   0.6843914
  -0.1753964  -0.8788869   1.0678474   0.1565218  -0.1222772  -0.1338876
  -0.5104507   0.2804448   0.4322820   0.2335545   0.7996981   0.5106057
   0.2120245   0.0913639   0.0314303   0.0877814   1.3856052   0.8932561
  -0.1907652  -2.1943722  -0.4020844  -0.0121825   0.2512009   0.1518447
   1.1563729   0.1722067   0.8278689  -0.5904534  -0.0599145  -0.5410220
  -0.1012476   0.3563162   0.0470981  -1.1617780   0.2773817  -0.0703585
   0.9171543  -0.3010280   2.5540955  -0.1163943   0.2013084  -0.0038255
  -0.2868285   0.6061766   1.8501873   0.1473964   0.2026820   1.3795207
   0.2194439  -0.1723504   0.0193610  -0.9705614   0.0639022  -0.7580376
   1.5902797   0.2477027   1.7079078  -0.0704099  -0.2559009  -0.0891124
  -2.5040872   0.7158375   1.8202782  -0.7489389   0.2417521  -0.1057134
   0.1350436  -0.3540555  -0.2751430  -1.1569684  -0.9699565   0.2696557
  -1.2543445   0.1671175  -0.1982814   0.3573285  -0.1547125  -0.2690043
  -0.2065440   0.8532917  -1.1611561   0.1899639  -1.2860123   0.2384771
  -0.0038577   0.0563334  -0.0631843  -0.7702054   0.3367642  -1.2952391
  -1.2063148  -1.4106823  -0.7294868  -0.3197058  -0.0020787  -0.2679492
   0.2595040   0.1480785   0.8766193  -0.3471543  -1.5393517   0.2564104
  -0.3412296   0.0292544  -0.2331350  -0.6074904  -0.0159697  -0.3531452
   0.4818547   1.7336860  -0.5341055  -0.1024783  -0.4141016   0.2400474
  -0.4668467  -0.4976753  -1.4579641  -0.3234586  -0.2082691  -0.0989299
  -0.1270578   0.1410960   0.1286542   0.3928800  -0.7906823   0.9287639
  -0.4298312   1.2467811   0.7741024   0.3483115  -0.3559198   0.1991778
   1.0093317   0.1676343   0.0794846  -0.0006077  -0.0098408   0.3086273
  -0.1303306   0.2838036  -0.1043742   0.4302990   0.5262095  -0.5009689
   0.3471890  -0.1363895  -0.2412192  -0.1105622  -0.2429522   0.0247262
  -0.2413807   0.8312225  -0.5355657  -0.3364634   1.0888432   1.9166560
   0.2828996  -0.1090953   0.1100924  -1.1119649   0.5639533   0.9832031
   0.2888002   0.3826491   0.3166309   0.1011328  -0.1291058  -0.2020248
   0.2861411   0.8714094   0.9141032   0.9790926   0.4037440   0.1511052
  -0.0144394  -0.3058102  -0.1373951   0.7051370   0.8289841   0.2685386
  -0.4306656  -1.4107212  -0.7277014   0.1260783  -0.1639154   0.0023535
   0.6819716   1.8660476  -1.4340374   0.8005670   0.0072403  -0.9647724
  -0.1199825  -0.0127131  -0.1088819   0.3160267   0.5654883   0.6089684
   1.3926618  -0.0797283  -0.1780170  -0.1365442  -0.3086305   0.0576376
   1.2576970  -0.0631088  -0.6982951  -0.2206431   0.4630070  -0.4819222
   0.1414985  -0.1227080   0.1013962  -1.1190419   1.2731767   0.4595014
  -0.1876446   0.1239525  -0.3717997   0.1894226   0.0615118   0.0699625
  -1.4666196  -1.2602828  -1.2042813   0.0856701  -0.8839064  -0.0327628
   0.0152079  -0.3686294  -0.2923898   0.9983607  -0.8579827  -0.2997707
  -0.0163855   0.4984157   0.6664388  -0.0674741  -0.2096142  -0.2053337
   0.3236154   0.0927942  -0.3838921  -0.5055423  -1.2879506   0.2016319
  -0.0395895  -0.1305170   0.0702430  -1.3297682   0.1187574  -0.9753217
  -0.2568021  -0.3955654  -0.2401175  -0.0053423  -0.0217619   0.3224889
   0.7685838  -0.4800496   0.3046294  -1.5931950  -0.6094501   0.2571172
  -0.0971655   0.1725748  -0.0655891  -0.0215270  -1.5814880  -0.2305856
  -0.2367657  -0.0697316   0.1954380   0.1248596   0.0669353  -0.1331914
   0.9095872  -0.3265265   0.4492745  -1.9154426   0.3124963  -0.7463956
   0.0088065  -0.0195782  -0.1417519   0.0120980  -0.6901559   0.4771898
   1.4274204   0.5056821  -0.5585185   0.1092860   0.1316435  -0.2568558
  -0.2224432  -1.3215750  -0.7073769   0.7897190  -0.7103058   0.3360274
   0.1748680   0.0275580   0.0901312   1.5769743  -0.2873202  -0.3942116
   0.1226966   0.0131729  -0.8205723   0.1508200   0.0137362   0.1401962
   1.0335830   0.5513821   0.3143828  -1.6475383   1.0595591  -0.6257351
  -0.0305548   0.0483367  -0.3423454  -0.8140829  -1.4123333   0.5995365
  -0.3561624   0.1008570   0.6334074   0.1042939   0.0903781  -0.0760949
  -0.7407287  -0.2439299   0.8312396  -0.3997754   0.7678832   0.3887999
  -0.1088726   0.1408866   0.1078964  -0.2155436   0.5772724   0.6677895
   1.1007414   0.2327861  -0.5192136  -0.0970568   0.1686739  -0.0670521
   0.3487398  -0.2113781   0.1658167  -0.0863087  -1.6214275  -1.4499854
  -0.0442136   0.2175756   0.1363995  -1.3488151  -0.2597109   0.4223284
  -1.2005786  -0.1688609  -0.4953878  -0.1374898   0.0300345   0.3110777
   0.1579014  -0.2456463  -0.5632160   0.1555210  -0.4353918  -3.0069299
   0.0333270   0.0163382  -0.0441640  -0.8386768  -0.0658134   0.4978222
  -0.2328703   0.7167358   0.9591354  -0.0177838  -0.0093614  -0.2802759
  -1.8143728   1.1355810  -1.4435390  -0.6063094  -0.3987288   0.9563758
  -0.0364778  -0.6102235   0.0779546  -0.2386917   0.8000972  -0.0720455
   0.3379460  -1.4027251  -0.4123037  -0.1330540  -0.1050504   0.4635318
   0.3729386  -0.4227210   0.8084330  -0.5641474   0.0975606  -0.0333636
   0.2874765  -0.1729040   0.2222396   1.3710761   0.1796952  -0.3483277
   0.9309770  -0.0770705  -0.8765390  -0.0729027   0.1754668  -0.0275161
  -1.1275243  -0.0011702  -0.2142592  -1.3111089   1.0583270  -0.4002220
  -0.1373296  -0.0232354   0.1076370   0.3839046  -0.0304125   1.3202579
  -0.4445184   0.1218745  -0.2863704  -0.0098907   0.0613117   0.0200676
  -0.9860057   1.0632902  -0.7195240   0.8160452   1.6000874  -1.5743581
   0.2147381   0.1185550  -0.1403399  -0.2320014   1.1889815   0.9938436
   0.2305628   1.3211291   0.5439084  -0.0646635   0.1399801   0.2081843
   0.1720978  -1.5259235   0.3862083  -0.4622975   1.7203007   0.6340151
   0.0532049  -0.1224864  -0.1349058  -1.3221973  -0.2492482   1.1671901
  -0.0646962   0.2066370   1.2486269  -0.0164020  -0.2198988  -0.0849061
   0.1455622   0.0946920  -1.6074517   0.7300546  -2.5201862  -0.4277905
  -0.1013338   0.1875435  -0.0918180  -0.2262581   0.4336799   0.4625822
  -0.7395024  -0.5227582  -0.5770773  -0.0537625   0.0848169  -0.2047269
  -0.3470305  -0.1128957   0.7227347   0.9472092   0.6817950  -0.4240536
   0.2991887   0.1875532  -0.1113552  -0.5942025  -0.8588850  -0.5575378
   0.6600811  -0.0516976  -0.8885264  -0.1740574  -0.4903990   0.0414510
   1.0132360  -0.4834587  -0.9001518  -0.5650353   0.5900531   1.1192839
   0.0316869   0.0023340  -0.2067059  -0.1205601  -0.1511850   0.9770492
   1.0600448   0.2002946  -0.1042102   0.0136968  -0.1027710   0.1917043
  -0.1928665  -1.7081541   0.6195137  -0.9980840   0.3773139  -0.7190431
  -0.0737682   0.0590087   0.0750705   1.2275878  -0.0602719   0.4953640
   0.7221321  -0.2712232  -0.5322273  -0.2469681   0.5961494   0.0692405
   0.0215437   0.5820686   0.1594814   0.0280242   0.5997422  -1.3794131
   0.0733332   0.1629248  -0.0183232   1.4739361  -0.0897457   0.7867326
  -0.3579445   0.9304003   1.2082230   0.2443969  -0.1075371  -0.0688982
   0.0903823  -1.1937519  -0.1507248   0.1320170  -0.9366276   0.5320072
   0.1727723   0.1062225   0.0619710  -0.5902641  -0.6637191  -0.0335678
   0.4070661   1.4256816   1.4345485  -0.0238759  -0.0226550   0.1069148
  -1.1188654  -0.9655812  -1.5922869  -0.0778606   0.1565764  -0.4226294
  -0.1469520  -0.3243456  -0.1437573   0.3411905  -0.0019820  -0.2890373
  -0.7102622   0.3842930  -0.4491416   0.2376494  -0.0528219  -0.1307468
  -0.4724554  -0.5713956   0.4911232  -0.9174396   0.2700845  -1.5393369
   0.0376054  -0.0410392  -0.0540221  -0.0183137   0.1491230  -0.7455701
   0.3143526  -1.2910463   0.5755742  -0.0151746   0.0209378   0.0763325
   0.4490670   0.7909679  -0.5087193  -0.5153348   0.3421590   0.6889064
  -0.0167072   0.0097536  -0.0720726   0.2328869   0.0059794   1.3422586
  -0.2855820   0.7418880   0.9871200  -0.2985181  -0.1555874  -0.1449640
   0.5502787   0.1765735   0.4561038  -0.7611875   0.4878722   0.4977877
   0.2193340   0.3529385   0.0085991   0.2824900   1.6948498  -2.0575364
   1.6883423  -0.6938522   0.1161591   0.1276026  -0.2721359   0.1756701
   0.0085550   0.5364663  -0.0661643   0.0083733   0.8141175  -0.0662115
   0.3379972   0.1382997   0.2132096  -1.5087144   0.6498508   0.2282308
   0.6201890  -2.1787634   1.5884939  -0.0511976   0.0554856  -0.2669450
  -1.4166592   0.1846085   0.9028367   0.7708806   0.2277384   0.7149438
   0.0414388  -0.3564193   0.1663878  -0.7851425   0.2556678   0.5137931
   0.3957534   0.0649840   1.5562898   0.1073442  -0.0515924  -0.0769236
  -0.8321584   0.2217246   0.5544186   0.6559516  -0.4044793   0.8342482
  -0.0510123   0.3025117  -0.0477489  -0.8237627  -0.0617370   0.7183512
   1.0078532   0.2153463   0.0155501   0.0770873  -0.1577722   0.2047388
   1.0795585  -1.2945603   1.0259236  -0.0049889   0.1430089  -0.1678680
   0.1574657  -0.3768656   0.2718031   0.6240308   0.2969984  -0.5659724
  -2.2896240   0.6450706  -0.0238167   0.3456295  -0.3156560  -0.1632150
  -0.4870485   0.6145406  -1.5224565   1.8042918   0.6063409  -0.1345339
   0.1812601   0.0194052  -0.3595148  -0.5716096   0.1673869  -0.2500448
   0.6721941  -1.1457144  -0.5080962   0.0165490   0.0725323   0.0547601
  -0.4466313  -0.6168184   0.0737111   0.6512836   0.2516803  -0.3646030
   0.0307292   0.1517897  -0.3731066   1.2912030   0.1617148   0.4657436
   1.1594690   0.0209560  -0.1992294  -0.2686570   0.1564903  -0.1427118
  -0.3100168  -0.1415439  -1.8893830   1.4626480  -0.0350463   0.2695378
  -0.0771696   0.1008702   0.1206441   1.8067431  -0.0737591   2.1591291
  -0.5674523  -0.2904412   0.2895848   0.0316775   0.0093379  -0.0759534
  -0.0784741  -0.2934403  -0.7879436   0.2198680  -0.4300137   0.0328951
   0.5272332   0.0390224   0.1331552   0.6977528   0.1389346   0.2732565
   1.2386377   1.0244303   0.1090405  -0.1601582   0.0283563  -0.1722090
   0.4518768  -0.6593276   0.9990361   0.2037191  -0.3585961   1.0916933
  -0.1024399  -0.2448225   0.1544902   1.8653929  -2.5045471   0.5048410
   0.4856999   1.1964480   0.9498389  -0.0976372  -0.1248901   0.3328097
  -1.5155443   0.0440731   0.4889935   1.6167682   1.0783391   0.8855637
  -0.0499592  -0.3571424  -0.0504555  -0.3711758  -0.3180643  -0.1794652
   0.4087214   0.4999474  -0.1929708   0.1199871  -0.1199829  -0.1403231
  -1.9464557   0.1070644  -1.1138633  -0.1449967  -0.5146409   0.0567095
  -0.0536819  -0.0907024  -0.1349005  -0.2833536  -0.3583185  -1.1546540
  -0.2667483   0.5013070  -0.3455797  -0.2183862  -0.1988986   0.0403737
   0.5933331  -1.4793708  -0.2705210  -2.0450699   0.4174864  -1.3023406
   0.0681426   0.0529266   0.1785098  -1.2524211  -0.7516463  -0.4001045
   0.8286138   1.3216231  -0.3126845   0.3431343   0.1136062   0.1002587
  -0.2452085   0.1137831  -1.3412765   0.1189838  -1.4169456  -0.0563132
   0.0071331  -0.2563772  -0.1118138   0.4666893  -0.0123360   0.2047448
   1.4331292   0.0027940   0.5867314  -0.1745307   0.0150239  -0.2278400
  -1.1611431   0.4994921   1.5637698  -0.8671710   0.0871560   0.3103619
   0.2611206  -0.2215929  -0.0491043  -1.5377263  -0.2626730   0.7587387
  -0.0444573   0.5126675  -0.4089735   0.0278007   0.0920648  -0.2378873
   0.5914061  -1.4990016  -0.4038390   1.4549154   0.2178933  -1.6228219
  -0.2593438   0.0049432  -0.2624639  -0.5207708  -1.3813090   0.3646967
   0.7728239  -0.2241364   0.6431580   0.1814665   0.2082561  -0.0723012
   0.8546386   0.4621942  -0.8459221   0.0173770   0.2455444  -0.4470602
  -0.2815596  -0.2577581  -0.1291914   0.5244859  -1.6687702  -0.3040304
   0.0570476  -0.7807312   0.3170221   0.1232810  -0.0290429   0.1327370
  -0.2329853   0.7288775  -0.7853967   0.9270601  -0.3429627  -0.6988297
  -0.1330214  -0.2173034   0.2060003   0.2863115   0.3091557   0.0140064
  -0.3133583  -0.4521048   0.1312231   0.0057177   0.1402668   0.3041576
   0.1081547   0.0832894  -0.1610318  -0.6973949  -0.3724754  -0.0574125
  -0.5784950  -0.1251621   0.2073564   0.1851654  -0.5450525   0.8035750
   1.5365748   0.0071460   0.5155891  -0.0128587   0.1009039  -0.1994186
  -1.6260413  -0.9205654  -0.6466045  -1.3771311   0.1445459  -0.2760076
   0.1159787   0.1079798   0.2151235  -0.5852017  -0.6207392  -0.3555289
  -0.6830506   0.1845007   1.4895902   0.2899321  -0.1240436  -0.0814323
  -0.7155262  -0.5010681  -0.5660793   0.9592729  -0.2051279   0.1866613
   0.1500464   0.3746648  -0.3798148  -0.5442142  -0.4636056  -0.5024075
   0.9860985   0.7854725  -0.8194031   0.0629369   0.0213548  -0.0252198
  -0.4636972   0.1578104   0.0551910  -1.0862134   0.4927517   0.6422992
  -0.1503739   0.0458360   0.0447761   0.7682438   0.7756675  -1.2047285
   0.7213526  -0.2457449   0.4775385  -0.0437388  -0.0710507  -0.1167446
  -0.2988719  -0.4989831   1.0540992   0.2742917   0.4877538  -0.7577110
   0.0606233   0.2521692   0.3173741   0.6900743   1.1499057   0.0522560
   0.9024076  -0.7334939  -0.9518373  -0.0976777  -0.3230242  -0.3220875
   0.1073661   1.1756852   0.3524497  -1.0698270   0.6439857   0.6092647
  -0.2312224   0.0301425   0.0323648   0.3514555  -0.5285118   0.1391291
   0.3233549   0.6182708   0.0992043  -0.1300451  -0.1465302   0.0059619
   0.0329855   0.2644043   0.0340174  -0.5357802  -0.8058504  -0.7559463
   0.4854848  -0.0594997  -0.3880864   0.9316239   0.1053865  -0.6637994
  -0.3319754   0.2655733   0.3670458  -0.1164529  -0.2668884  -0.0804894
  -0.5240331   1.3676099   0.3204819   0.7827687  -1.1680208  -1.3212781
  -0.3478013  -0.4617060  -0.0987463   1.0777842   0.5435502   1.3738567
  -0.0584809  -1.2335835   0.0445297   0.3010930  -0.0799798   0.2986886
  -1.0340897  -0.3132226  -0.1541557   0.9181106  -0.5233525  -0.0447495
  -0.0247960  -0.1166286   0.1402997  -0.3107559   0.0400616   1.1805879
  -0.9926606   0.5390956   0.7769526  -0.1200082   0.1233011   0.0029751
  -0.1054941   0.9557705  -0.3241528  -0.1101352  -0.8917178  -0.5233510
   0.1879704   0.0429575  -0.0394132  -0.5973300   0.5527859  -1.8185157
   1.8447698  -0.1229444   1.7211214  -0.1210488   0.3329415   0.0592566
  -0.2005027   0.8042386   0.8232966  -1.0440567  -0.5383285   0.7077753
   0.0361490  -0.0745809   0.0161873   0.1705286  -0.7459059   0.7974811
  -1.2743274   0.8527602  -0.6315458  -0.2041774  -0.3323982   0.0592831
  -0.6607492  -0.2813520   0.0655132   0.5122105  -0.0128016   1.3492119
  -0.0193445   0.3342834   0.0296673   0.3207225  -0.3333561  -0.2101095
  -0.1728293  -0.5015147  -0.9820467   0.0618397  -0.1174908   0.2293624
   0.8618454  -0.6420311   0.7756323  -0.2665703  -0.5227439   0.4943187
  -0.0593712  -0.4072484   0.1101530  -0.3984369   1.1061291  -0.5389789
   1.0565553  -0.4729531   1.2448698  -0.0281192   0.4303479   0.1880931
   0.4778694   0.3029951   0.0204907   0.0486465  -1.6077571  -0.5703223
   0.1990646  -0.2697713   0.1070873   1.8621509  -0.6945826   1.0264843
  -0.1819151   0.8635347   2.1625328   0.1181654   0.0154142  -0.0147740
   0.4567151  -0.6355265  -1.3688897  -1.2250986   1.2305307  -0.1574202
   0.0562748  -0.0513867  -0.2547584  -0.3314639  -0.1599548  -0.4744660
  -0.5845897  -0.4610692   0.9785525   0.0225951  -0.1181112   0.0299145
  -0.7345679   0.4004064  -0.1715121   1.6151779   0.2697499  -0.0698186
  -0.1135891  -0.2556247  -0.0389905  -1.4213872   0.2020382  -0.9512048
  -0.7410936   0.0490477  -0.6738008  -0.1510195   0.1101293  -0.0769934
  -1.1533047   0.1343559   0.2758155  -0.4005218   0.5106850   0.5028535
   0.1819198  -0.0384197   0.0382495  -0.0555557   0.1578001  -0.2462712
  -0.1583540  -0.7700796  -0.1649161   0.2315809   0.0332445  -0.0313085
  -1.3175582   0.4891162   0.4491679   0.1097792   1.3854886   0.8400122
   0.1664098  -0.1589772   0.2106625   0.3776370  -0.5803543  -2.0187149
  -0.0283897  -0.5265824  -1.1716599  -0.1051545   0.1103635   0.1736302
   0.1429787   0.4411360  -0.7623693  -1.0156347  -0.0258846   0.6307737
   0.2454735   0.0019468  -0.0790852   0.3807335   0.7318015   0.0151029
   0.2231273   0.2588830   0.0103416  -0.1245427  -0.1894671  -0.0627888
  -1.1476771  -0.6290577   0.9737259  -0.2828149  -0.1023624   1.2432524
  -0.0460110   0.0939265   0.2328798   0.5691050   1.1216838   0.4285769
  -0.2035920   0.1112064   1.0046980  -0.0470694   0.1586038   0.1688349
  -0.0898748   0.8218945  -1.0073651   0.2459346   0.8375609   0.5476988
  -0.0419791  -0.3156615  -0.1810275   0.6798613  -0.2050975   0.1595545
  -1.5429876   1.2153798   1.6891885  -0.1363627  -0.4033793   0.1822465
   0.2566695   1.4299215  -0.0309279   0.5513306  -0.6016223   1.0952504
   0.0628508  -0.0535585  -0.0971685   0.4580811  -0.8832199   0.8943451
   0.6512456   0.3322834   0.1242848   0.1998049  -0.1063431   0.0185860
  -1.0466000  -0.6933830  -0.0625222  -0.6288217  -0.4801690  -0.8662309
   0.1332881  -0.3530572   0.4845098  -0.6688144   0.9331290  -0.3048941
  -0.4557378  -0.9206288   0.3426731   0.0484205   0.2907358   0.1646210
   0.2449052  -0.1981688   1.1976546   0.1145738   1.8554943  -0.3900790
  -0.0844839  -0.0003020   0.0725064   0.4550286   0.7721530  -0.1285729
   0.0393690   0.4569009   0.7880002  -0.2075682  -0.1542708   0.1566046
   0.6946540  -0.9219124   0.6717024   0.8506579  -0.9699644  -0.2386867
   0.1665686  -0.1186066  -0.2955618  -1.2967939   0.2963985   1.1572477
  -0.0209796   1.5065798  -0.2277855  -0.0288601   0.0344585   0.0589922
   1.2160497  -0.7013879  -0.0718666  -0.5658085  -1.1694800   0.0248890
   0.0060332  -0.1190657  -0.0018411  -0.8037685   0.1840639   1.0090221
  -0.2133964  -0.1875404   0.9153149  -0.5046090   0.0105616   0.1934169
  -0.2469402  -0.3835810  -0.4168511   1.0023915  -0.5846125  -0.9673455
   0.1129578  -0.2599441   0.1070355  -0.4601044  -0.5015978  -0.8788140
   0.6082352   0.3326977   0.9854639   0.1304356  -0.1636154   0.3780012
  -1.8621348   1.9398246  -0.0510233  -0.3018144  -1.6922120  -1.0377868
  -0.0959570  -0.1484689  -0.3334806   0.5865335  -0.0423855   0.5182467
  -0.4309205  -0.0363685   0.6709472   0.2193041  -0.1678752  -0.2382876
   0.2383614   0.0456725   0.4495014   0.1631009  -1.4031450  -1.1043434
  -0.0968009  -0.2204652  -0.1006835   1.0115193  -0.6158916  -0.2010216
  -0.8512577   0.9753351   0.2899337  -0.0292528  -0.0405186  -0.2491751
  -0.4911878   0.0587113  -0.5451882  -0.5370291   0.0812397   1.0901804
  -0.3700274   0.3206507   0.0874078   0.0089878   0.1697756  -0.2379695
  -0.4266073   0.5536608   0.5249694  -0.1906519  -0.0335700  -0.0876020
  -0.0736469  -0.9940589   0.2328663  -0.2542394  -0.1916391  -0.9930242
  -0.1628334  -0.0830494   0.2249388   0.8635924  -0.3704357   0.3157072
   0.4953876  -0.4323637  -0.2613220   0.2325003  -0.1476372   0.1656463
   0.3098012   0.9788603   0.9966921  -0.1521317   1.5438741   1.1953759
  -0.1440556   0.0360974  -0.0564851   0.2065339   0.0823225  -0.5630397
   0.4779691   2.0453744  -0.2132148  -0.1601682  -0.1771214  -0.0530249
  -0.6200950   1.0670284   1.6283600  -0.5629752  -0.2297912  -1.0854462
  -0.2420423  -0.1911843  -0.2011375   0.5880426   0.4010343   0.1359088
  -0.5024072   1.2565491   0.8371265   0.2075835   0.2739184  -0.1907326
  -0.8124986   0.4838980  -0.6035030  -0.6930723  -0.1359526   0.8950393
   0.2314725   0.1717858  -0.1314839  -0.8946764  -0.5540048   0.9693933
   1.3321441   0.5280232  -0.1330724   0.0804555   0.0841839  -0.2104632
  -1.5626330  -0.0608247   0.3675756  -1.0057781  -0.4724422  -1.1064903
  -0.1591115  -0.2776017   0.1432720   0.6203834   0.9881014  -0.1368958
   0.7520370  -0.1147119   0.6498547  -0.2100116  -0.1609859   0.1881627
   0.2046898  -0.0144672   0.0179927   0.1389736   0.6832860   1.2008744
  -0.1810235  -0.0590692   0.1313126  -0.5286828  -0.7029669   0.9279981
   0.8969747   0.1655173  -0.2695662  -0.0839430   0.2149446  -0.1460159
   0.7180123  -0.8533822  -0.4166200   0.7447597  -1.0860344  -0.9869859
   0.1102836   0.1357910   0.4128847  -0.3221391  -0.5701210  -0.1850142
   0.6481306  -0.8517960  -0.7368976  -0.3140621   0.0333532  -0.0241014
  -0.8683887   1.2289326  -0.5662083  -0.4788979   0.1462359  -0.6413670
   0.0583587   0.1135959  -0.0394871   0.0702378   1.3051312  -0.1215284
   0.3400106   0.4964193  -1.0393111  -0.0365566  -0.0706071  -0.0421053
   1.2174938  -0.0007252   0.9033024  -0.0720223   1.2613505   0.3913802
  -0.0505277   0.2008033  -0.3071309   0.9077008   0.6951926   1.4147018
  -0.5978675   0.2401222  -0.5993899   0.1705095   0.4062980  -0.2857812
   0.2608565   0.5744009   1.8330141   0.1212462  -0.2179639  -0.7654318
  -0.1899141   0.1558353  -0.0340280   0.0675313  -1.5929623  -0.6166527
  -0.2484950   0.5887145  -1.1657259  -0.3942423   0.1078004   0.1299011
   1.4679759  -0.0150553  -0.4394247  -0.5546414   1.7436661   0.3700749
  -0.0931375   0.0055820   0.1416284   0.8013689  -0.8005080   1.0885528
  -0.4531257   0.0953066   0.1789267   0.0661601   0.1401584  -0.1189599
  -0.0078280  -0.3927614  -0.4113618  -0.5011876   0.3834480  -0.6403754
   0.0579835   0.2702563   0.2429610  -0.8663485   0.1634193   0.3742098
  -0.8437706   1.2122216   0.6767366   0.1730537   0.1804451  -0.0490881
   0.6623291  -0.0778142  -0.1198278  -0.2749343   0.2380523   0.8137721
   0.0583186  -0.0649098   0.0616149   0.4259045  -0.7814140   0.7510465
   0.5991815   0.6327941   0.2327678   0.1157324  -0.0361155  -0.2241171
   0.3432097   1.1446003  -1.4244879  -0.1286964   0.0773542   0.0143438
   0.0621173   0.2867165  -0.0290894   0.0456763   0.6303717   0.1701846
   0.9171812  -1.1579782  -0.1909564  -0.2212038   0.0479337   0.0702688
  -0.0106639   0.7716368   0.9106332  -1.1677465   0.1419216  -0.3733177
   0.0804017  -0.2848525   0.0235435  -0.5162541  -1.0271899   0.6842477
   0.8249363  -1.2272458   0.1847173   0.0560000  -0.1291522  -0.0660448
  -1.0644789   0.5546833   0.5484418  -0.8341346  -0.2536991  -0.4224625
   0.1099594  -0.1873656  -0.2565398  -0.4810799  -0.3714600   1.0789797
   0.7183719  -0.3954705   1.4322517  -0.0758245   0.1036714   0.0238965
   0.2892311   0.7123962  -1.0982249  -1.0958725   1.3345469   0.6441562
  -0.0435995  -0.1870953   0.1011485  -1.6974138  -0.3741711  -0.3504790
  -0.6069931   0.0427082   0.1121851  -0.0135860  -0.3910892  -0.1851949
   0.0662064  -0.2028124   1.1572615   0.7421272   0.1345939   0.1482393
   0.1420619  -0.2236494   0.1741161  -0.3501836   0.5582099   0.7102097
  -0.4463062   0.3770287  -0.2122215  -0.2534717   0.0343200  -0.0849074
  -0.9347364   0.2043771   0.2729172   0.3848567   0.1409815   0.6634538
  -0.0641645   0.1517372  -0.0785749  -0.8906249  -1.2564195  -0.8605956
  -0.3097182   0.5502347   0.4784475  -0.1174109  -0.1330256   0.0008896
   1.7468003  -0.0656383   0.1926212  -1.2025523  -0.7675388   0.0191078
   0.0231549  -0.1731050  -0.2274717   0.5358849  -0.1321983  -1.2318441
  -0.5365322   0.5652713   0.1513772  -0.4181473  -0.2164634  -0.0412311
  -2.3391895  -0.8671036   1.6116827   0.1501179   1.4127786  -0.1086683
   0.0611686  -0.1456834   0.0677244  -1.1243141   0.7059855   0.9617913
  -0.4405123   0.2739890  -0.6362330  -0.0641291  -0.0992106  -0.1230359
   0.3247343  -0.6342447   0.1116533  -0.1322155  -1.5559976  -1.2115256
  -0.1281075  -0.0657224   0.0184205  -0.1134435   1.4830343   0.1852409
  -0.1033416  -0.3503394  -0.3031917  -0.4052651  -0.1589063  -0.1925847
  -0.1019784   1.3918434  -0.1944528  -0.7054995   0.0232486   0.4876411
  -0.2758956   0.0958972   0.0370375  -0.0242960  -0.7640651  -0.6181886
   0.1852996  -0.2515244  -0.0235321   0.0977079  -0.1690884   0.2469672
   0.7067762   1.6195642  -1.3805615   1.3329564   0.8394693  -0.9528314
   0.3460800   0.1838390  -0.1130313   0.0859723  -1.3694671   0.1969204
  -0.3795555   0.8783697   0.4821873   0.1319335  -0.0287620   0.0493180
   1.0786813  -0.9260136   0.7277697   0.9497261   0.1191152  -0.3100055
  -0.1547428  -0.3649400   0.1392793  -0.7815542   1.4042791   0.3210591
   0.2271503  -0.0342462  -0.2940606  -0.3075462  -0.1802204  -0.3810557
  -0.2248664   0.4349664  -0.8705620  -0.9153470   0.0216161  -0.0671960
  -0.1338331  -0.1072809  -0.0052154  -0.1755903  -0.2326761  -0.3183179
   0.0327829   1.0463942  -0.6468034   0.0734774   0.1071142  -0.1313235
   0.5536214  -0.5756829   1.3206335  -0.0850897  -0.4240935   0.2787130
  -0.2282929  -0.1730901   0.2880179  -1.1541910  -1.1627198   0.9220750
   0.6629708  -1.1103579   1.0614675  -0.0642455  -0.2078747   0.1161877
   0.8341019  -0.0693389   0.6115364   0.5418990  -0.1834880   0.5638998
   0.2338917   0.0832733  -0.0152684  -0.4441817   0.4544748  -0.7529830
  -0.5252356  -0.0394627   0.0919128   0.3107891   0.2329013   0.1688893
   0.9258115   0.3168394   0.5140848   0.1984255   0.4637106   0.6844726
  -0.2571749  -0.0454051   0.1710665  -0.9167752  -0.4870827  -0.0354922
   0.8185511  -1.3111843   0.0566129   0.0960967  -0.2009722   0.3101047
   0.2732587  -0.1805001  -0.4492405   1.6189564   0.8323922  -1.8777471
  -0.2184958  -0.2938073   0.2383035   0.0141605  -0.0382459   1.0100561
  -0.0002894   1.2857035   1.6605394  -0.0013227   0.2033522   0.3645124
   0.8788272  -0.3522922  -0.8055361   0.6573134  -0.2350699  -0.3047991
   0.2137197  -0.4154156  -0.1390345  -0.8281260   0.0586068   1.0695264
  -0.9577301  -0.0909644   0.7308133   0.1645685   0.2053375  -0.1254552
   0.0320006  -0.3263860  -0.3056906   0.6457483   1.2726486  -0.3770142
   0.4266374   0.0573035  -0.0502172  -0.1798400  -1.3176795   0.2220319
   0.0331806  -0.3095321  -0.3565349   0.3811924   0.2805820   0.1079527
   0.5150120   0.4363400  -0.4465985   0.4165455  -2.5578735   0.1438439
   0.1142201  -0.0603211   0.5574927   0.8478500   0.7971007   0.8671000
   0.9595089  -0.3987180   0.7398480   0.1076142  -0.0862484   0.1003155
   0.8644395   0.0975699  -0.4443820   0.2729067  -1.1393391  -0.8170186
   0.0499890  -0.2120157  -0.3602372  -0.6595955   0.1194094   0.5205985
  -0.0898446  -0.8865762  -0.6846454   0.1188948  -0.2618657   0.2163384
   0.3533821  -0.2963900   0.7142006   1.3066512   0.9005333  -0.3733988
   0.2076524   0.2391458  -0.0417267   1.2523999  -0.5837448  -0.1251557
  -0.3077305  -0.7780831   0.3492110  -0.0376782  -0.0766736   0.0906528
   1.1281765  -0.4197649  -0.1835782  -0.8573489  -0.4767700  -0.3288298
  -0.0163942  -0.2861006  -0.1893435  -0.9401399  -0.6957611   0.1899329
  -1.1819808   0.4506775   1.3431273   0.0001003  -0.3442799  -0.0902250
   0.2098556  -0.2592574  -0.2346681   0.4253415  -0.6963389  -0.0954521
  -0.0539346  -0.0217558   0.1313509  -0.4316401  -0.5352673  -0.9537629
  -0.5408045   1.3957307  -0.7999846  -0.0604522  -0.2190283  -0.0113512
  -0.6833903  -1.8633873  -1.2306664  -1.6852628  -1.1742120  -1.2288196
  -0.0754181  -0.1638017  -0.4503220  -0.6984435  -0.7343710  -1.8019053
  -1.4449437   0.2837858  -1.0592917  -0.1837999  -0.0861071   0.1206806
  -1.1983275  -1.0532106  -1.5237550  -0.4933001  -0.8944665  -2.5324781
  -0.3449039   0.0466749  -0.0179602   0.6118028  -1.1153245   0.1712166
   0.1863838   0.3149852   0.1183473   0.1907417  -0.0646945   0.2260512
  -0.3538013   0.8532534  -0.1963942  -0.4209462   0.6333784   0.0032695
   0.0984403  -0.1510988  -0.1856491   0.5982316  -0.7010735  -1.6353006
  -1.4775690  -0.3935918   1.6377453  -0.2049250  -0.1400820   0.3573581
  -0.8811871   0.1069796   0.5517149  -0.0309632  -0.3670716   0.2968568
  -0.3257040   0.0218600   0.1381344   0.5874041   0.0786515   0.4204743
  -0.1861983  -0.0694356   0.0837086   0.1769203  -0.1786173  -0.0168572
  -1.2289554  -0.4223018  -0.2307458   0.8485312   0.4623842   0.6803238
   0.3160095   0.1248810  -0.1278362  -0.7684654   0.3745371  -0.6559967
  -0.7419909   0.3555102   0.9686086  -0.0163332   0.2413976  -0.0721084
   0.7750200   0.6112823   0.0769145  -0.9381583  -2.0478089   0.3142686
   0.0911663   0.0692087   0.4539504  -0.0675791   0.1368233  -0.4667009
   2.5423090   0.1130310   0.1311088   0.1046064   0.1379112   0.1678862
  -0.4967203  -0.0533836  -1.0597614   0.1997778  -0.1888826   0.9140563
   0.1440642   0.2210929  -0.2399280  -0.4257427   0.2531260   1.0437812
   0.8546522  -1.0869571  -1.4725145   0.0290334  -0.3249678  -0.0445351
  -0.3578891   0.5167440  -0.4493349  -0.0584567  -0.0787996  -1.1244885
  -0.1170593  -0.0813082   0.0335471   1.3935620  -2.1360657   0.5801723
   0.8110667  -0.8931002  -0.6873225  -0.1554288  -0.0102060   0.0470891
   0.0056110  -0.7810752   0.0959249   0.6918435   0.2034020   0.9211134
  -0.0133759   0.1499436   0.0101510  -1.1053274  -0.0346605   1.5590543
  -0.2339270  -0.6708639  -0.3650981   0.4662227  -0.0418505  -0.1911681
  -1.1282701  -0.0426083   0.0822616  -0.2327448  -0.0855087  -0.0705651
  -0.2715262   0.1223844  -0.0456651   0.2181505  -0.5368735  -0.7685734
  -0.7501890  -0.9397869   0.6295152   0.2758869  -0.0358938  -0.0592045
  -0.8779881   0.1515550  -0.0557032  -0.6898065  -0.0293670   0.7876914
  -0.2448240   0.0661705  -0.2458882  -0.0187496   0.0580414  -0.4418393
  -0.4769581  -0.0540251   1.0070199   0.1277908  -0.1125756  -0.1352059
  -0.0687498   0.4051497  -0.1090307   0.9316553  -0.8176268  -0.0970552
   0.2246903  -0.1272917  -0.1008800  -2.1443124  -0.0431852   0.1972726
   0.9244890  -0.9319682  -0.6101688   0.2090501   0.1641489   0.2378262
   0.9358239  -3.0879750  -0.9203675   1.1907389  -0.1071253  -0.8213263
  -0.1786596   0.3504279   0.0243825   0.6069478  -1.5763994   0.1849602
  -0.1609116   0.3518280  -0.3085249   0.0940567  -0.1476116  -0.2692796
   0.1481092   0.1137390  -2.1928139   1.5721244   1.4223119   0.1887873
  -0.4703310   0.1123301   0.2120140  -0.4784914  -0.2747846   0.0867241
   0.9398050  -0.6456470  -0.8024036  -0.3641410   0.0292888   0.2012770
   0.5814489   0.4634155  -0.9210747  -0.2945078  -0.3752316  -1.4259568
  -0.2832102   0.0832182   0.1994523   1.0306985  -0.8426885   0.4746087
  -0.1873156   0.4075776  -0.8785825  -0.2257420  -0.0436867  -0.0578967
   1.8569955   0.3953664   1.9312897  -0.1324990   1.4355358   0.1547882
  -0.1690315  -0.1478699   0.0735001  -0.5998651   0.3831602   0.2980132
   0.9876932   0.1652408  -0.7989542  -0.2923660   0.0791218  -0.0528611
  -1.4594091   0.5742108  -2.4005973   1.0992597   0.1904987   0.5874563
  -0.2434189   0.2058823   0.0074372  -0.4978374  -0.4781486  -1.0308182
  -1.5154916  -0.6444654  -0.6840826  -0.0314126  -0.0580658   0.3788981
  -1.8761348  -0.0337533   0.2032332   0.3933019  -0.6109014  -0.8555303
  -0.1642969  -0.0552345  -0.2386417  -0.4636923   0.1366539  -0.7508907
   0.1875206  -0.2189711   0.2236442   0.2659711   0.1466313  -0.0748776
   0.4291403   0.0875278  -0.3996858  -1.0642232   0.4968755   1.4859242
  -0.3082344  -0.1043931  -0.1775063  -0.5797943  -0.9566766   0.1192542
  -0.4260063   1.3238275  -0.1281608  -0.2173969  -0.2092289  -0.1100778
   0.7822086  -0.4377053  -0.0926649   1.2067717   0.4005685  -0.1847604
  -0.1798386   0.1833822   0.1582703   0.0184471   0.1625796  -1.0427452
  -0.1321676  -0.0697556   0.5415305  -0.0567801   0.2090534  -0.2862192
   0.6151071  -1.1098967  -0.8852315  -1.3243470   0.7171531   0.1869507
   0.0608556  -0.2540444   0.1742546   1.0757662  -0.6532646   0.3997965
  -0.9148461  -1.1642021  -0.1190227  -0.5442431   0.2392447   0.3330681
   0.7612582  -0.1842800   2.5326850   0.5727258  -0.5586727   1.2033361
   0.0104848   0.0861721  -0.1553086   1.1802244  -0.2635050  -0.2151476
  -0.6808037   0.1126942  -0.8095461   0.2218823   0.0958275   0.2808906
   0.4750803  -0.1134477  -1.2467526  -0.9113002  -0.0990336  -0.4150038
   0.2400317   0.2707487   0.2051131  -0.7713273   0.7549948   0.4452267
   0.0337177   1.9859868   0.3539080  -0.1070134  -0.3465364   0.0512890
   0.4253584  -0.6634539   1.1444712  -0.6199507   0.8476776   0.3091224
   0.2687657   0.0774061  -0.1896996   0.1840541  -0.1762240   0.2315711
  -0.7689912   0.5105564  -0.4187473   0.0056437  -0.0581214   0.1614619
  -0.7352288   1.6610179   0.0012371  -0.6166700   0.6687379  -1.0542321
  -0.0146678   0.0508319   0.1855068  -0.6196765   1.2675518  -0.7938820
  -0.2416178   0.8313556   0.0243430   0.0621867   0.0874252   0.0211640
   0.1977014   0.7206577  -1.2833492   1.4816945  -0.5025650   0.0538726
  -0.0596836   0.2593488   0.2782288  -0.6830987  -0.1284548   0.4145518
   0.9751167   0.9759591   0.1873899  -0.1996530   0.0537846   0.3373140
  -0.2251188  -0.3463165   0.9186501  -0.5687129  -0.6542481  -0.5860203
  -0.4960214  -0.0239498   0.2591135   0.8561578   0.6385363  -0.2051639
  -0.0512765   0.2669299  -1.1069797   0.2632869  -0.0635324  -0.1539927
  -1.5422544  -0.8145635   0.6243306   0.1016667  -0.1196875   1.1275511
   0.1794348  -0.0092816   0.0384292   0.7884828  -0.1472605  -0.1222864
  -0.6852506   0.6156409   1.0500778   0.0199412   0.1754988  -0.2599986
  -0.0125089  -1.0818056  -0.1094600  -0.4499989   0.5930510   0.3606755
   0.0521699  -0.5185322  -0.5136644  -1.7075651  -0.5636786  -0.6074930
  -1.1727295  -0.5289517   1.4418237  -0.0137891  -0.1025325  -0.5776015
  -0.2392937  -0.8995210  -0.1862729   0.3512511   0.4464561  -0.0178283
   0.1913234   0.0700495   0.1279258  -0.7662843   1.1829604   1.8539652
   0.5789899  -1.2835799   0.5508628  -0.2820626  -0.3553306  -0.0924411
  -0.1778425   1.7789651  -0.1493060  -0.3307679  -0.6487544  -0.5285549
  -0.3798866   0.2035566   0.3728404  -0.8246691   1.1626587  -0.9350179
   1.0029706  -1.4898403   0.1619222  -0.0421193  -0.1837797  -0.0477585
   0.6298354   0.8774557   0.2530410   0.7333817   0.4153097  -0.1952383
   0.0107142   0.1939637   0.2805704   0.6715918  -0.5600364  -0.4148531
   1.5912145  -0.4085625   1.1453635  -0.2123272  -0.0000985  -0.0386937
   0.6002318   0.0881297   0.6868460  -1.7892946   0.0916730  -0.3280795
   0.0807564   0.5335045  -0.0805486  -0.2496084  -0.5908578  -0.8628461
   0.0515520   0.0111447  -0.8186783   0.1521094   0.2621201  -0.0433781
  -0.2402308  -0.3425929  -0.5093438   1.2912314   0.6314322  -0.1949679
   0.1096551   0.0733110  -0.0594908  -0.1241648  -1.0761974  -0.4185343
  -0.1628795   1.5395164  -1.1870804   0.0426337  -0.1576151   0.1806906
  -0.4095255  -0.6498544   1.5996778   0.4053515   1.3969315  -0.4835410
   0.0375971  -0.1352961   0.3325712  -1.2018056  -0.7534220  -0.5995980
   1.0249854   1.1900361   0.4072058  -0.2301533   0.0743242   0.2935502
   0.9348482   0.9179357   0.1963255  -0.2747271  -0.8379065   1.0234473
   0.0897678   0.1744806  -0.0350890   0.7094998   1.4611810   1.2921455
  -0.8959108   0.1730956  -1.1608920   0.1294246   0.0598499  -0.0554787
   0.9338151   0.2477463   0.0662594   0.6248330  -0.8189847   0.4508518
   0.2167863  -0.1746608   0.2111810   0.7268801  -0.0241415  -2.1852167
  -0.9190442   0.2361573   0.4569989   0.0523217  -0.0684558   0.3862005
   1.7817277  -0.4345586  -0.7048076   0.1345565   1.2072989   0.3476614
   0.1008685   0.2017503  -0.0092670   1.4279592  -1.2266989  -1.1408052
   1.1760929   0.3028113   1.5166289  -0.2120173   0.3161616  -0.2020044
  -0.4954691  -1.1297542  -0.3064376  -0.9783460  -0.0947954   0.0157042
   0.0912243  -0.0119109   0.0390340  -0.3934489   1.0260264  -0.4376705
  -0.5927170   0.1548218   0.1506533  -0.0901441   0.0141979  -0.0063985
   0.1110174   1.4353662  -0.2515939   1.0224140   0.0760495  -0.2520772
   0.0027987  -0.0289077   0.0399893   0.2736766  -0.2083295   0.8172593
   0.7183394  -0.4823278   0.3882629   0.2649724   0.0765627  -0.1473760
  -0.8318452   1.0110295  -2.0260596   0.4771415   0.4800965   0.3824576
   0.0568594   0.1704415  -0.0299906   1.3758436   0.4450836   0.7666977
  -1.2628808   0.3152285  -0.5380151  -0.1074109   0.2134998   0.2434596
  -0.5608348   0.0893888   0.9919721  -1.1083040  -0.7376914  -0.5456207
   0.0491061   0.0513728  -0.1246229  -0.2638755  -0.7350322   2.1093631
   0.6207758  -0.0685124  -1.6307646  -0.0672088  -0.0349092  -0.0432347
  -1.4748253  -0.9554594   0.7940266   0.0089269  -0.3629047  -1.1626292
   0.2621965   0.0665687  -0.0114850   0.2069010   1.3947489  -0.3668839
   0.0061599   0.2867941   0.9632206   0.1947621   0.1304396  -0.0129750
   0.1274347   1.6541628  -0.2700731  -1.8211100  -0.1263829  -2.3162544
   0.0654268   0.0557974   0.1530963  -1.1106845   1.4790252  -1.9200932
   1.2148216   1.0914283   0.2835432   0.2583873   0.2432372   0.2601701
   1.1888114   0.8159507   0.1185058  -0.9575753  -1.6336105   0.8767148
  -0.0008938   0.0967555  -0.1335544  -0.9421514   0.4056418  -0.0972539
   0.1652182  -0.4489306   0.7639300   0.0494274  -0.0842942  -0.0428046
  -1.0277003   0.5647238  -0.1992551  -1.5383146  -0.8629708   0.0577857
   0.1486336  -0.1809091  -0.3322250  -0.9700515   0.8637488   0.0540217
   0.3329957  -0.0248201  -0.5915955   0.0600179  -0.2680983   0.2606333
   0.7877734   0.6137494  -0.1341637   0.4856040   1.5956771   0.7508957
  -0.0036301   0.0384656   0.1006322   0.2465791   0.5245187   0.4048880
   0.3155696  -0.9128318  -0.0518812  -0.2148436   0.3106070   0.3898472
   0.3944361  -0.6392510   0.0933504   0.1343625  -1.0340906  -0.0924664
  -0.1625523  -0.3966305  -0.1864402   0.0634445  -1.7672641  -0.3335600
   0.1318617  -0.8847280   1.2789072   0.0877419  -0.1425366   0.0255898
  -0.3818206   1.0314995  -0.3101059  -1.8490254   0.3080987   1.0819502
  -0.1561133   0.0530442  -0.1015655  -0.6898775   0.3852918  -0.1160523
  -0.4327175   0.6507691  -1.1664594  -0.0013897   0.0119836   0.2137968
   0.6497397   0.3848515  -0.5720235  -0.2159353   1.0634613  -0.5414054
   0.1432450  -0.1096356  -0.0695085   0.0780047   0.2432806  -0.6036785
   0.6044134  -0.1119224  -0.4352620   0.1463376   0.3419116  -0.1700036
   1.6286304   0.5981078  -0.1196557  -0.8020998  -0.8973190  -2.4503732
   0.1844590   0.2669035   0.1220405  -0.2638174   1.7938334  -0.1182154
   0.1453903  -1.9206760   0.5739973   0.0413759  -0.0647835  -0.1507437
   0.9948506   0.4366903  -0.6456954   0.1852093  -0.0255948   1.5861598
   0.4387064  -0.3572797   0.2752286  -1.7291501   1.5856445  -0.2293244
  -0.1410400  -1.0179262  -0.9448845   0.1769824   0.0211558   0.2069151
  -0.3988962  -0.0983314   1.0201688   1.3843997  -0.1895693   0.2737508
   0.0522304  -0.1308227  -0.1388281   0.3176679  -0.4705344   0.6574876
   1.1367669   0.4101780  -1.8135179   0.0607061   0.0479010   0.1381314
  -0.8605753   1.8141763   0.5049953   0.1082297  -0.4034526   1.4713726
  -0.1782900  -0.1285839   0.1500165  -0.3975582   1.4369434  -0.0212334
   0.5926695   0.8202107   0.0379158  -0.0224995  -0.2386385   0.2873390
   1.0825697   0.5822551  -1.5473282   0.8955066  -0.2046985  -0.2191000
  -0.0990422   0.1266086   0.0810987   0.0818146   0.7775389  -0.3899529
   0.5140199  -1.2301273   0.4449515  -0.3109241  -0.3983516  -0.2200940
   0.6293069   0.5654150  -0.9371948  -0.9865864   0.0233472   0.0057428
  -0.0649037  -0.1558826  -0.2020065   0.0219226  -0.6834648   0.2995099
  -1.4401863   0.2992716   1.3051001  -0.1696954   0.3722329   0.1007658
  -0.1477999  -0.1373667  -0.3885601  -0.0157493   1.2433081   0.6390309
  -0.0051769   0.3162036   0.3878709  -0.3829424  -0.3084410   0.8019088
   1.0129089  -0.6812374   0.1690285  -0.0642297  -0.1413463   0.3285130
   0.9264648  -0.0661937  -0.2266097  -0.1707840   1.0177342  -0.5617654
   0.0988831   0.1479470  -0.0116041   1.3218560  -0.4941766   1.0402576
  -0.1063009  -0.3012961  -1.1764405   0.4669375   0.0625716   0.2319588
   0.0074761  -0.4372008  -0.0677385   0.5192352   0.8624587   0.6444094
   0.2440149  -0.1652422   0.1636733   1.1519618  -1.2026628   0.8057175
  -0.0718482   0.7802008  -0.6783702  -0.2266950   0.2870660   0.0203107
   0.7481429  -0.2185193  -0.1733011  -0.0741690  -0.2917475   0.0394806
  -0.2080758  -0.1363726  -0.2223344  -0.4808024  -1.5704203  -0.8262028
  -0.3722950  -0.0288241  -0.8891738  -0.0061076  -0.2122814   0.2104242
   1.7001961  -0.7503144  -0.5841186  -0.2938098   0.2893139  -0.2230402
  -0.1208550  -0.0876449   0.0548828  -1.0332024   0.5971744  -0.1031346
  -1.0548986   1.2291523   0.1238223   0.0691179   0.0117533   0.3322147
   0.1952679  -0.9583933   0.8697421   1.3730797   1.1873506  -0.7663092
  -0.0043577   0.2919831  -0.1853651  -0.0986150  -0.3349030   0.4934135
   0.6426940  -0.2632255   0.7403013  -0.2774665  -0.1139219   0.1734297
   0.3214668  -0.2064026   0.2274745  -0.5938788  -1.5581245   0.1471345
  -0.2138719  -0.2322626   0.4028261  -0.2429773  -0.4382848  -0.2060239
  -0.4086466  -1.2915862   0.3054764   0.0273403   0.2964980   0.2365112
   0.3607461  -0.6454699  -0.8768544  -0.0161134  -0.5360487   0.4780987
   0.1372174  -0.0632343  -0.1086312   0.3386593   0.3373932   1.5790590
  -0.9460853  -0.1541894  -0.9410766   0.1347910  -0.1038019  -0.1055434
   0.7152133   0.1607866  -0.2820078  -0.0026098   0.6219454   0.2811937
  -0.0607224   0.0484613  -0.1475225  -1.3577702   0.0033553  -0.5962870
   1.1401132   0.5894001   0.4693621  -0.0495101  -0.2536425  -0.0941832
   1.2645483   0.1855985   0.3685770  -0.8461936  -1.8141836   0.7002851
  -0.0939619  -0.0592707   0.0634740   0.5941913  -0.4038539  -0.9957634
  -1.4351282   0.0149894   0.4685261  -0.2283922  -0.1861910  -0.3892882
  -0.6435094   0.1782964   0.1727311  -1.5648940   0.5814579   0.0388842
  -0.0959830  -0.0294284  -0.0276584  -0.5230435  -0.5260931  -0.5335906
  -0.5264195   0.7044787  -0.1466942   0.3533961  -0.1815845   0.0531202
  -0.4301231  -0.0186410   0.1133995  -0.2814876   1.2893441  -0.1393416
   0.0156325   0.1352269   0.0998988   0.6253302  -1.3310552   0.1570560
  -0.4933553  -0.4013168  -0.6223403  -0.0052853  -0.1024980  -0.0103423
  -0.6811342  -0.7253415  -0.9454324   0.3932143  -0.3858360  -0.1164150
   0.0746908   0.2438947   0.0939241  -0.2128921   0.1911009   0.9922683
   0.0709948  -1.8559824   0.3212874   0.0127483  -0.0261931  -0.0696173
  -1.8674240   1.6347337  -0.6549753   0.5035140   0.9670686  -0.3968238
   0.0474848   0.0142269   0.1002996  -0.1852133   1.5095840  -0.1913740
  -0.0265014   0.6420128   0.6039918   0.2818545  -0.1696745  -0.0898365
   0.9689423   0.6698462   0.2377147   0.0359742   0.7170857  -0.0165227
   0.0148259  -0.3717650   0.0605351   0.0963983  -0.4331276  -0.2919980
   0.5543342   0.8092834   0.0076737  -0.0460297  -0.0840930   0.0278451
  -0.3038381   0.0419723   0.1735583   0.3762989   1.1595608  -1.0516543
   0.0695682  -0.1422784   0.1674129   1.3861334   0.7595258  -0.2525577
  -0.3777377  -0.5299751  -0.0283094  -0.5010901   0.1553252  -0.0396300
   0.0717750  -0.7725349  -0.7677343   0.2537607  -0.2839573   0.6119215
   0.0258318   0.3668127  -0.1216693   0.7099254  -0.5086184  -1.1657661
   0.3187954   0.7212661   0.8751791   0.2013862   0.1374131   0.1390119
  -0.4823105   1.2147341  -0.0695279   0.1805812   1.5117753  -0.3712527
  -0.1580204  -0.1185304   0.0118528  -1.5357121  -0.4477507   1.5220190
   3.6361732  -0.6515439   0.0452312   0.0221608  -0.1106644   0.0960324
  -1.4165714  -1.9679857   0.3148681  -0.8181849  -0.4266931   0.5522225
   0.0612642   0.0325369  -0.0892953   0.0153406  -0.7820101  -1.5304391
  -1.3823740  -1.1332237   1.5124038  -0.1722976  -0.0162039  -0.3282969
  -0.3715114  -0.1424615   0.0612837   0.0641899  -1.6105585  -0.0055315
  -0.0890507  -0.2973545  -0.0531571  -0.1641384  -0.5326366   0.6651465
   0.7629998  -1.0674340  -0.2731659   0.1435708  -0.1164749  -0.0523814
   0.1446944  -0.7941144  -0.8578040   0.8306779   0.0978725   0.6576821
  -0.1941710   0.3227226  -0.0350339   0.9894837  -0.5411406   0.2110874
  -1.1882056   0.9670947   0.5011461  -0.0946177   0.0647694  -0.2306392
   0.2836541  -0.9215142  -0.5262359   0.9374815   0.6867535   0.1842472
   0.4151484  -0.2799947  -0.1418410   0.5302522  -0.3835158   0.3240522
  -0.1008782   1.0538378  -0.9375398  -0.1077796   0.0288193   0.1192991
   0.4490749  -1.5578289  -0.6109875   0.9202231   0.6966802   0.3056698
   0.3700585   0.0231037  -0.3226624  -1.3975977  -0.4877063   0.0430658
   0.3085243  -0.0565376   1.5474238  -0.4477772  -0.2635351  -0.1522541
  -0.0739283   0.3005104  -1.4244691  -1.7352462  -0.1928096   0.7103990
   0.2863199  -0.0570092  -0.0523695   0.8984845  -0.0404072  -0.1875650
  -0.5751630   0.8689486  -0.1655632   0.4520053   0.1846989  -0.0692857
  -0.3075482   0.7746748   0.6113404   2.2711380   1.4387828   0.4337285
   0.0409337  -0.3374928  -0.0903334   0.7842138   0.6364300   0.1599755
   0.3446573  -1.8949875   0.5352935   0.3453035   0.1580885   0.1615524
  -0.2179468   0.0787055   0.7491526   0.4317325   0.8710647  -1.1075859
  -0.2040150  -0.1663896  -0.1096455  -0.4381444  -0.0506042   0.1575576
  -0.3967151   0.4467306   0.0440176   0.0590988  -0.1406183   0.0895117
  -0.1278971   0.6254645   0.2361762   0.2598824  -0.6258332   0.0697950
   0.2151567  -0.0222977   0.2216056   0.6857052  -0.9266194   0.8961940
  -0.2662209  -1.2612864   0.7491501  -0.0070976   0.1069139  -0.2842841
   0.6466615   0.3539052  -0.2115233   0.5823529   0.3216890   0.0581949
  -0.1177976   0.3039400   0.0939534  -0.6874164  -0.9332938  -0.0087996
   0.3037134  -0.3730131   0.2473580  -0.2971990  -0.1081195   0.1732002
   0.0463558   1.0071652   0.6866488   0.4424995  -0.1913180  -0.0842894
   0.0136883  -0.0239426  -0.0240288   0.8480740   0.7425874  -0.4962258
  -1.0719769  -1.3457720  -0.0524151  -0.1402213  -0.1992095  -0.0552360
  -0.2481468   1.0046440  -0.2568239   1.5190535   0.0965763   1.3065864
   0.1054622   0.0475825  -0.0532252   1.3569506  -0.6990597   0.8603859
  -1.7674019  -1.3190882   0.0782763  -0.3482578   0.1035427  -0.0358962
  -0.3461890   0.3294445  -0.6598533  -0.1496667   0.0278825  -0.5356908
  -0.1200574   0.0174253  -0.0783654  -0.2088349   0.0465414   0.6322346
  -0.9403368  -0.6112716  -0.8088101  -0.0507844   0.1314562  -0.2307492
   0.7120837   0.1553784   0.5231310   0.2914238   0.2372795   0.0475669
  -0.2626534  -0.2296693  -0.1368152  -0.3582083   0.4709654  -1.4540482
  -0.7600714  -0.3001968   0.0818915   0.0230720   0.0183657  -0.0971864
  -1.1561433   0.8570294  -0.2631604   0.5392128  -0.7013157  -0.0488555
   0.1302780  -0.0743608  -0.0125460  -0.5360102   0.0936959  -0.9134269
  -0.5457071   2.2235222  -0.7303219   0.0156613  -0.1713632   0.0346706
   0.9540475   1.1872019  -0.5782394   0.6594852  -0.9560309  -0.0049099
   0.3589625  -0.0695528  -0.0026539   0.1728409  -1.8726208   0.0189686
  -1.5712423  -1.2155979  -1.2537872   0.0953001  -0.0803853   0.0719589
   0.0238242  -0.3260420  -0.0856214  -0.4882612  -0.8267536  -0.8881648
  -0.0345786  -0.0097818  -0.0056759   0.4252896   0.9079987  -0.0250295
   0.9968580   0.6940175  -0.5409958  -0.0467961   0.1983589  -0.3061287
  -1.6209385  -0.2544651  -0.0321283  -0.5575205   0.2571877   0.3459155
   0.1021174  -0.2343726   0.0672612   0.7990462   0.2086188  -2.2328804
  -0.1995843   0.7371723   0.4860890   0.1220254  -0.0559121   0.0155277
  -0.3877176   0.1569101   0.2935414  -0.6980458  -0.3230665  -0.1124082
  -0.0406936   0.0747016   0.2364216   0.8434432   0.0469416  -0.7637830
  -1.2987047  -0.3227288  -0.2753583  -0.3633092   0.1052189   0.0946229
   0.5732198  -0.0760427  -0.7347487   1.1127898  -0.2526621  -0.3021354
   0.3180708  -0.1125527   0.1128662   0.8459162  -2.0666456   1.3428944
  -0.3282340   0.9223661  -0.0211473  -0.3528090   0.0337230   0.0135817
   0.1944564  -0.6575310  -0.5742202  -0.3339675  -0.0556032   0.2320585
  -0.1605178   0.0139845  -0.1913433  -0.3099883   0.3090193   0.1396146
   0.3104428  -0.3933932  -0.5277296  -0.0657757   0.0843134   0.0753715
  -0.3175917   0.2526213   0.2517161   0.1000469  -0.8389421   0.2111388
   0.4347045  -0.2765102  -0.1379218  -0.5072495   0.1286252  -1.0749015
  -0.3318227  -0.1500450  -1.1990422   0.1089281   0.0813470  -0.0992881
   0.2298788  -0.8333892  -0.0594624   1.1573681   0.3179050   0.9852367
  -0.0426438   0.0229592  -0.2178241  -0.5899477   1.0096924  -0.9140797
   0.3931289  -1.0214589   0.8624354   0.0809399   0.2102252  -0.1494188
   0.7560829   0.8573354  -1.7525579  -0.4921049  -0.4329595  -0.6988284
   0.3494188   0.2642823   0.2763771  -0.1762621  -0.9427103   0.3656738
   0.5078324   0.3973298   0.6892123   0.1173541   0.0592644  -0.0312592
   0.3166587  -1.1883727  -0.2913005   0.9745345   0.0956544  -0.4293572
   0.0134576   0.1947416   0.4022688  -0.8555051  -0.4916890  -1.3319957
  -1.4388807   0.3479816  -1.3123039   0.2735065  -0.0088177   0.0323355
  -0.3015004   0.2763654   0.6944044  -0.3691717  -0.9088351  -0.1979592
  -0.1305923   0.0352902  -0.1545085   0.2908248  -0.7636245  -0.6090042
  -1.1219965   1.4151438  -0.6688435  -0.3134583  -0.0063876   0.1224784
  -0.8231335  -0.7226800   0.9104605   0.5290855   0.1967713  -0.7562738
  -0.0758192  -0.2585623  -0.2005346  -0.1776686   0.8790712  -0.4081949
  -0.3544737  -0.3615555   0.8730063  -0.1874191   0.0933986   0.1189877
  -0.3564502   0.2900770  -0.2364524  -0.8729028   1.5276126   0.9697463
  -0.2471588   0.3680256   0.2670101  -1.0102397  -2.1242712  -0.7609405
   0.1013906   0.8237819   0.0543512   0.0446058  -0.0417693   0.4358495
   1.8748604  -0.3667230   1.2465945   1.3553833  -0.6342714  -0.2753699
   0.2136637  -0.0046960  -0.3599047   0.3533775   0.6181079  -1.4988673
  -0.4506745  -0.1267880  -0.3562617  -0.2318461  -0.0593780  -0.1827796
   1.2584742  -0.5170904  -0.0759533  -1.0186276  -0.3034869   0.4899666
   0.1344227  -0.1339408   0.1304328  -0.9694542  -0.6261252  -0.3420716
   1.0395192  -0.4502082   0.1536710   0.2561077  -0.0240083  -0.0374124
   1.5728048   1.7648892  -0.8535759  -1.7470019   1.6064299  -0.6606888
  -0.0158732  -0.0720298   0.2174518  -0.2818393  -0.1038852   1.3904405
  -1.2044317  -0.8555924   0.7224333  -0.1003318  -0.5304275  -0.2954388
  -0.1971820  -1.0697601   0.7553203   0.8398851   1.5292406  -0.0438878
   0.1744968   0.1030807  -0.2877749   0.5742626   0.1494872   1.3153127
  -0.4841429  -0.4642937  -0.5037233   0.0576861   0.0679693   0.0499929
  -0.7043429   0.8055742   0.3577521   1.7619115  -0.1936644  -0.1486832
  -0.2272343  -0.2071912  -0.1046201   0.1858195   1.6901186  -1.3013579
  -0.7300593  -0.4855403  -1.1707577  -0.0790820   0.0441640  -0.1115533
  -0.9245479  -0.1174937  -0.1699696   0.8485773  -0.8253861  -0.2205690
   0.2361151  -0.0563992   0.0781456   0.0331961  -0.0816987  -0.1892335
   1.3441803   1.8736049  -0.5905344  -0.3228418   0.1582267  -0.0987704
   0.7946025   0.2680326   0.0422809  -0.7611917  -0.5494776  -0.9046721
   0.1084138   0.1172606   0.1051460   0.1371595  -1.7219536   0.2687541
  -0.4040378  -1.3583567   0.0099657   0.0286735  -0.0050836  -0.1026652
   0.4499078  -0.0089518   0.4788683  -0.2032856  -0.9083099   0.0790373
   0.3531410   0.4278786   0.2797387  -1.4806999  -0.1721551  -1.2309064
  -0.3126363   0.3249535   0.5511868  -0.1044838  -0.0323198  -0.0304337
   0.0147891  -0.8149369  -1.2088908  -0.7533820  -0.3660879  -0.7009497
  -0.0839339   0.2182625  -0.2010338   0.0897895   2.3711734   0.6978008
   0.4137183   0.2306319  -0.6564271  -0.2137483   0.0694748   0.1120311
  -0.1489801   1.0127208   0.6256251  -0.1070869  -0.9330673   1.0972483
   0.4339885   0.1675639  -0.0942015  -1.0239594  -1.4059385   0.7632441
  -0.7561701   0.3259399   0.6834909  -0.0826311  -0.1455125  -0.1484084
  -0.2678419  -1.8036065  -0.8028398  -0.0165683  -0.2896060   0.7620392
  -0.1570965   0.2173050   0.2048569  -0.8387790   1.2623932  -0.4099602
   0.5991203   0.0660747   1.2365904  -0.0847559  -0.2022174  -0.2155898
   1.1954412  -0.6387620  -0.1767526   1.1758101   0.3065986  -0.2624335
   0.2170417   0.2241968  -0.2498448   0.0082135   0.5829293  -0.5455149
  -1.0727551  -0.2850723  -0.7541693   0.0861792  -0.0932334  -0.2855038
   1.9418592  -0.1529771  -1.4731377  -0.3310526   0.4085170  -0.7728133
  -0.1360331  -0.4290895  -0.0572276  -0.3918631   0.0791965   0.9490675
   0.5207249   0.8939595   0.5438249   0.1044037  -0.0737334   0.0136318
   0.8346393   0.7238469  -0.8877043  -0.4566781   0.5325763   1.1092665
   0.1858177  -0.1605734   0.0981370   0.6432878   0.8079223  -0.9504888
  -1.4128259   1.0792956   0.4699673   0.1359321   0.1391064   0.1940860
  -0.2346106  -0.5194038   1.2091608   0.6597882   1.8993952  -0.8655302
  -0.1748097   0.2910866  -0.0260482   0.3934182   0.0010866   0.0897106
   0.1362085  -0.2575665  -0.1384649  -0.0305212   0.0907692   0.1511939
   1.8590028   0.2326753   0.5011508   0.2349428  -1.8758646  -0.3345908
  -0.2468020  -0.1345213  -0.2561117   0.3260877   0.9290438   0.7931746
   0.2978212   0.2712579  -0.1615557  -0.0109680  -0.0230696  -0.3173928
  -0.3470346   0.2605538  -0.7381716   0.2997299   1.2178425  -0.4262787
  -0.1205799   0.0288910   0.0845885  -0.0543396   0.3452783   0.3678435
   0.5857795   0.9446113   0.2765213   0.0273899   0.1630280   0.0967304
   0.0183578  -0.1574466   0.0265167   0.2761049   1.0849646   1.2467794
   0.4727461   0.1187780   0.2622952   0.5752755  -2.0155790   0.5558695
  -0.2143530   0.3284752   0.8219616  -0.0369487  -0.0554153  -0.2467897
   0.2464078   1.6725315  -0.9113154  -0.0740502   0.1958881   0.5634798
  -0.0457188  -0.0210298   0.0703858  -0.8738832  -0.5620058  -0.3719187
   2.0997252   0.5232036   0.5015377  -0.1189364  -0.0698950   0.0746996
  -0.3712121   0.1326560  -0.1072657  -0.3109879  -0.0476948   0.4645046
  -0.1940717   0.0507387   0.1540867   0.1392703  -0.1153800  -1.0713267
  -0.3076510   1.1152892   0.7856716   0.3115645   0.2677152  -0.0847070
   0.1618359   0.2804034  -1.2603345   0.7305706   0.8461121  -1.0965698
   0.0603596  -0.1575395   0.1319746  -1.2812651   0.9791875   0.6418617
   0.5047072   2.3436213  -0.7915404   0.0045137  -0.3045232   0.3697135
   0.8852759  -1.0073541   0.4772277   0.1815770  -0.4285189  -1.4946117
   0.2990685  -0.2890669  -0.0204096   0.5427544  -0.7129004   0.8434111
   0.1915139  -0.4765664  -1.2045045  -0.1771111  -0.0298742  -0.0801643
  -0.3479922   0.2909828   0.2597412  -2.6402714   0.9268957  -0.6798624
   0.1290026   0.3457095   0.1623929  -0.1662683   0.6070746  -0.4680991
  -0.5303930  -0.0311359   1.1154861  -0.2149012  -0.0427603  -0.1452351
   0.5461287  -0.0188061  -1.2683991   1.1196153   1.8006728   0.6778728
   0.0288930  -0.2408651  -0.3186310   0.8338425   0.1323960  -0.2377084
  -0.5550925  -0.6686575  -0.2913855   0.0603889   0.1349454  -0.1238871
   0.6369071   0.6692732   0.8651810   0.8004088  -0.8659933  -0.7046623
   0.0379439   0.0278970   0.3349271   0.9223906   0.8871318  -0.1730410
  -0.7413519   0.6196030   1.5808885   0.0330178   0.0951795   0.0025159
  -0.4122052   0.4855452   0.8693219  -0.0715819   0.7582037   0.7465024
   0.0142603  -0.1744459  -0.2847672  -0.7551981   0.5512468   0.1676293
   0.6439117  -0.6113416  -1.0450498   0.1559465   0.2428852  -0.0754396
  -0.6850519   0.6507646   1.3297937   0.3596249   0.9808849  -0.6022860
   0.0447994  -0.1125026  -0.0753905  -1.9018575   0.8156185   0.2553891
  -1.1468594  -0.6861380   0.3620996  -0.2758604  -0.0832994   0.0030424
  -0.6170200  -1.2046424   1.1036608  -0.0472049  -0.0543147   0.2420642
  -0.1389798   0.1365306   0.2170954   1.2019736   1.0061574  -0.3050677
   0.0461604   0.5030751   0.5844972   0.0243552  -0.0521289   0.2847804
   0.7846113  -0.5005359   0.6413736  -0.0150189  -0.5339386   0.6972860
   0.0790300   0.0563190   0.3113278  -0.1424422  -0.8081400   0.2433506
  -1.1536483  -0.5280129  -0.7434400  -0.0623564   0.1576999  -0.1227312
   0.7856004  -0.9887239  -0.0282851  -0.4781914  -0.1632242  -0.9244118
  -0.2182957   0.3607280   0.1502931  -1.0259157   1.3900532   0.5870352
   1.1531110   1.2064273  -0.9472076   0.2069892  -0.1063722   0.0356579
  -0.3208946  -0.6797782   0.8418450   0.1722717   0.9928539  -0.4791273
   0.0358959   0.1752298  -0.1823400   0.0275359  -0.0950522  -0.4777952
   0.2008554  -0.9549987   0.0742835  -0.2179109   0.1262756  -0.0134165
   0.8756695   0.3274948   0.2135623   0.2339896   2.2108538  -0.0570895
  -0.1046569  -0.2555002   0.2682023  -0.0443657   0.1288704   0.0129124
  -0.7940974  -0.7982951  -1.6107717   0.0095640   0.1082309  -0.0552225
  -0.9813439  -0.4632989  -1.2409705   0.7734927  -0.6844406   0.4781635
  -0.0296886  -0.5300079  -0.0532581   0.1174790  -0.5153997  -0.1107175
   0.8341354   0.1081740   1.0407611   0.1145632   0.2217779   0.3464260
   0.0496949   0.1629917   0.3665605   0.3213286   0.7799813   0.7956761
  -0.3676457   0.1090037  -0.0851397   1.7708634  -0.1984151   0.1586576
   0.9403169  -1.1393559  -0.7544593   0.5687543  -0.1884316   0.0502616
  -0.8601243   0.2895498   0.2724943  -0.2655192  -0.3381582  -0.2055774
  -0.1822969   0.2940288  -0.0614910   0.9696841  -1.3811311  -0.1380001
  -0.0265315  -0.5854575   0.7231281   0.0384799   0.3112041  -0.0308945
   0.0796249  -1.1251980  -0.6417456  -1.2652040   0.6680228  -0.2566120
   0.0267932  -0.1471013  -0.0912365  -0.0031646  -0.1996645   0.1116341
   0.9698276  -0.7616202   0.7968875   0.2089597  -0.1427758   0.1743828
  -1.0515445   0.1487425  -0.1702603   0.2725426   0.1205406   0.8380035
   0.3539962   0.2146696  -0.0171953   1.3070716  -0.2301217  -0.2072932
  -0.8558749   0.8995827  -0.5246898   0.3048489   0.1662674   0.1732159
  -0.3921967  -0.8405008   0.0916145  -1.0692003   0.4949030   0.1976652
   0.1800124  -0.1526611  -0.1441647   0.8152094   0.6032820  -0.0641205
  -0.7098221  -2.0216000  -0.6208799  -0.2012614  -0.0813563  -0.2878467
   0.6296626  -0.2504583   0.0655373  -0.8845758  -0.6108941   0.3379955
  -0.1558589   0.1570427  -0.0778074  -0.3791775   0.4671075   0.4625406
   0.7813610  -0.7702313   0.5197005   0.2379973   0.3749245  -0.1848536
   0.9040809   0.9571700   1.1709589   0.9445550   0.3188314  -1.0958607
   0.0537917  -0.1544786   0.2443355  -0.2730864  -0.2497714   0.1069998
  -0.1701006  -1.2953173   2.3475912   0.0972748   0.4882320  -0.0913265
   0.2884258   0.3617484  -1.4165218  -1.5343568  -0.1379033  -0.0513119
   0.1421447   0.0595062  -0.0307375  -0.0153064   0.9152688   0.5012290
  -0.2853008   0.9411533   0.8234099  -0.0035798   0.0856673   0.0732467
   0.9653591   1.8217744  -0.7728779   0.0681384  -0.2099965   1.3744941
   0.1947396  -0.1951142   0.0138491   0.0583775   0.4175257   0.1586015
   0.4360520   0.2579845  -0.1841163  -0.2544765  -0.1803577  -0.1182363
   0.2778844  -0.5633040  -0.2423691   0.9423205   0.7652388   1.0096440
   0.3626816  -0.3738330   0.2172435   1.6142945  -0.9559813   0.8731720
   0.4704777   1.2446159   0.4455826   0.0644382  -0.1229929   0.2306643
  -0.0890015  -0.2078297  -0.0458690   1.0621680   0.7372085  -0.2486560
   0.0650547  -0.0014076   0.0214902   0.6253092  -0.3749579   0.4557211
   0.0032737  -0.2924793  -0.1393867  -0.0164815  -0.0219910   0.3868692
   0.1998405  -0.0490093   1.7424217   0.5467945   0.5440943  -0.4634480
   0.2448195   0.2073963  -0.1364010  -0.0208417  -0.4733781  -0.4554501
   0.2705573  -1.2473420   2.0820067  -0.0810798   0.2013460  -0.1789061
  -0.5636613  -1.8705810   0.6788670  -1.3369455  -0.1222143  -0.9283010
  -0.0847066  -0.4833583   0.0303526  -0.6613489   0.6713251  -1.7870535
   0.9252154   0.2502280  -0.3699131  -0.1919913   0.0527934  -0.0377346
   0.0545497   1.3534306   0.0428407   0.4136091   0.3842566  -0.3680340
   0.2045583  -0.0947964   0.0858252  -0.5876583  -0.9036889  -0.2562526
  -1.1925436   1.6112252  -0.1494714   0.0439094   0.0058638   0.0710933
   0.5530561   0.0005643  -0.1809960  -0.4637400  -1.3855267  -1.3630664
  -0.0217108   0.0876827  -0.0168332   0.9926428   0.2722332   0.1625414
   0.2748140   0.5261691   0.8821172  -0.0303740  -0.1209764  -0.0417145
  -0.8531421  -0.4133693   0.9070960   0.1530003   0.1900223  -0.7616764
   0.2454451  -0.1573043   0.0440408  -0.0238251   1.0117552   0.4894944
   0.5255263   0.3696674   0.8699718   0.0319290  -0.0006198   0.1254165
  -0.5453301  -0.6689540  -0.5443075  -0.4929173  -1.3509563   1.6431881
  -0.2182374   0.1338675  -0.2737665   0.8050258  -0.7726199   0.5958573
   0.6861159   0.7059043   0.5794202  -0.1007508  -0.1525098   0.0875105
  -0.2235544   0.1803273   0.6070111  -0.1061112  -0.1591127  -0.5808755
  -0.2046660  -0.2237848  -0.2278354   0.9001886  -0.0933969   0.6677480
  -0.5062353  -1.0421168  -0.1558037  -0.1563613  -0.2073618   0.1549736
  -1.4700969  -0.7034544   1.1823798  -0.3262464   0.4664427   0.3682474
   0.0795341   0.0153919   0.0841884  -0.2512073  -1.0343754   0.6924263
  -0.9975808   0.7863946   1.1753879   0.2324526  -0.1515751   0.1925830
   0.0585338   0.7159443  -0.7105949   0.2846009  -0.7781318   0.0833100
  -0.0350983   0.3218684  -0.1065263   0.2131893  -0.9712823  -0.0541597
  -0.8976843  -0.4720249   1.0497348  -0.0734168   0.3159430   0.4069929
  -0.2177021  -0.5274980  -0.5457841  -0.9171875  -0.5789269  -0.2978301
   0.0084278   0.2410061   0.1606929   0.9946426  -2.2930548   0.7006539
   0.1669245  -1.2743702   1.3111125   0.2067124   0.0485017   0.0645738
  -0.7673395  -1.1377882   0.0987560  -0.6063445   0.5570649   0.3413529
  -0.2887168   0.3857016   0.2345407   0.6280800  -0.4755799   0.2625078
  -0.3333424   0.3877951   0.9513622  -0.1816181   0.1006053   0.2474697
  -0.3956410   0.4372904  -0.2431959   0.7065663  -0.1147030  -0.6338263
  -0.0816430  -0.1542584   0.0715577  -0.0850041   0.0308426   0.3722295
   0.7191816   1.5720850   0.0540767  -0.3231843   0.2046083  -0.0832416
  -0.1389380  -1.0465291   0.5382145   0.1952841   0.3485744   0.5979383
   0.2121642   0.1199570   0.0197643   0.9716135  -0.3031658  -0.3720658
  -0.8313030   0.8261207   0.1675640  -0.2230019   0.1605419   0.1492534
   0.6899518   1.2102370   1.2186036  -0.6472174   0.3771923   0.1004369
  -0.2400139  -0.0912988   0.3627417  -0.0399258   0.0310725  -1.3793206
   0.9692553  -0.0210131   1.2649071   0.0503463  -0.1143717  -0.0527851
  -1.6024022   0.3717772  -1.6365329  -0.2419003  -0.8052659  -0.1756987
   0.0203693  -0.0386901  -0.4500974  -0.9779091   0.2198859  -0.6500417
   0.0743925  -0.0253035   0.5816008  -0.3202752  -0.4533694   0.0388963
  -0.6677784   0.8018237   0.0504985   1.2369990   0.0460570  -0.1280725
  -0.2442363   0.0471480  -0.1702295   0.9792612   0.2744371  -1.7242364
   0.4178947   0.5276673   0.2210707  -0.2596042   0.1529621   0.0579729
   1.2685328   0.1836106   0.4570534   0.1984663   0.0923949  -0.5331920
  -0.0466322   0.1876435  -0.2841465  -0.2762409  -1.6062796  -0.0048400
  -0.7685270   0.6186305  -0.6946992   0.1964688  -0.0597288   0.2657988
  -0.5952581   0.8005037  -0.3790655   0.2638357  -0.4885658   1.3340586
   0.2108524   0.0617666  -0.2030185  -0.8526942   1.5689273   0.6782140
  -0.2162172  -1.4238725  -0.5521604  -0.0794113   0.3876839  -0.1192796
  -0.7290296  -1.0050422  -0.2025633  -0.3479890  -1.4608321  -0.9746181
  -0.2270824  -0.1498929  -0.2273808   0.0835948   1.2669277   0.3226791
   0.1377509  -0.1611940  -0.2985370  -0.3659223  -0.1281385   0.1952295
   1.1671529   0.8286876   0.3772688  -0.6897542  -0.2891724  -0.2293149
  -0.3279180  -0.1475461  -0.1348620   0.9119877   0.3488295   1.1860012
   1.1886302  -0.6061258   0.1608104   0.1578056  -0.2254389  -0.0400579
  -0.2817819  -1.4026649  -0.2413558   0.7507160   0.7243437   1.9889529
   0.0451433  -0.3236767   0.2549397  -0.0190302  -0.7863913  -0.2203451
   0.8847866  -0.7151087   0.1850469   0.0983781   0.1027171   0.0080254
   0.3227461   1.0427268  -0.7697850  -0.7151599   0.5978677   0.1165576
  -0.2641900  -0.5213861   0.1917900   0.4471098   0.9947237  -0.8353118
   0.4913433  -0.9123957  -0.2576652  -0.2890218  -0.2030071   0.1998773
   0.0462227   0.8287659  -0.1924890  -0.6579667  -0.4951382  -0.0362879
   0.1407268  -0.2340449   0.2369426   0.9773736   0.2375488  -0.4270394
  -0.8564932   0.3208006  -0.0647389  -0.3212955  -0.0031924  -0.0528009
   0.7434759   1.2206266  -0.6303681  -0.1126456   0.1364824  -0.7569463
   0.0367746  -0.1882077  -0.0902148  -0.9203286   0.1799447  -0.6499503
  -0.3113029   0.0372474  -0.7156981  -0.1489062  -0.1149371  -0.3216077
  -0.8383558   0.0780557   0.6191081   0.9210118  -0.3063263  -0.6468937
   0.2009679  -0.2686287   0.2422175  -0.2200198  -0.4761679  -0.5162096
   0.7587289   0.4033358   0.9489892  -0.2780426  -0.0150499   0.0761967
  -0.4987013   1.3914282   0.5210494  -0.5693973   0.7756259  -0.2828817
  -0.3789862   0.0088089   0.2928826  -0.9036584   0.3401121  -0.6961058
  -1.3375853   0.2328478   0.1844927   0.0393776   0.4710257   0.0387273
   0.4950880  -0.4003950  -0.2278267  -0.5358580  -0.4798858  -0.2688790
  -0.1364828  -0.0669916   0.0343173   0.9522530  -1.0250530  -0.3212450
   1.2918087   0.0256663  -1.4015498   0.0436105  -0.0009069  -0.1931881
   1.4242337   0.9346414  -0.4597217   0.7611229  -0.1454096   0.4606284
   0.4277208  -0.1406715   0.0764384  -0.1102394  -1.1471601   0.4283258
   0.7464380   0.8722909  -1.0701840   0.0925223   0.2152507   0.2924226
  -0.4312015  -0.5727755  -1.2234226  -1.0574640   0.2522496  -1.0251133
  -0.1631589  -0.0572329  -0.0537929  -0.5645146   0.0649387  -1.2905523
  -0.0387355  -0.1714634   0.0735150   0.3558244  -0.0081421   0.0231797
   1.1724509   1.3405685   1.9367082  -0.9330057  -0.4019299  -0.7344650
   0.1196412   0.2195470   0.1608630  -0.6407095   1.5181744  -1.1128607
   1.0066767   0.3962575  -0.4040802   0.0298086   0.0077069   0.0107694
   1.9507946  -0.7168694  -0.2595429  -1.4339834   1.3010957   0.8786830
   0.0134707   0.1103751   0.1860332  -0.3438354   0.2793286   0.1332717
  -1.5941156  -0.9415103   0.6901267  -0.0460658   0.0650026   0.1144713
   1.1922263   0.4218325  -0.0758242  -0.0080295   0.4182005  -0.6842268
   0.0679818  -0.2655603   0.1000755   1.9020420  -0.9310114  -0.6837206
  -0.0465982  -0.7627722   0.4122026  -0.1648187  -0.2362517   0.2767564
  -0.4567876   0.7377065  -0.8219464  -0.9397009  -1.8197803   0.8169149
   0.1557489  -0.1177879  -0.0366898   0.5348161   0.8343922  -0.3208506
  -0.4197877  -1.4210439   1.2702419   0.0945400  -0.0714367   0.2153262
  -1.5307523  -1.1137152  -0.3778570   0.0752932   0.0594678   0.0102876
  -0.3966251  -0.1774952  -0.4031810   0.6820430   0.9041985   0.1913127
  -1.9252783   0.6262318  -0.3504243   0.0104478   0.1684287   0.1490520
   1.3642398   2.9175591   1.5755292   0.6727492  -0.1405267  -1.4541508
   0.0977797   0.3147336  -0.1794563  -0.4331877  -0.1499757  -1.0765252
   0.8772887   0.7856363   0.8690106  -0.5379952  -0.1021993   0.1315789
   0.6293665   0.5624850  -0.2265199  -1.6769083   0.1865415  -1.0054940
   0.3474405   0.0399377   0.4866160   0.0703350  -0.6550569  -0.6490421
   0.2317355  -0.1921256  -1.2589414  -0.0454563  -0.1771593   0.0634731
  -0.1409653  -1.5478985   0.1152240   0.3106854  -1.3285855  -0.6705860
  -0.2125707  -0.1862935  -0.0176036  -1.8046346  -1.3902284  -0.3349786
   0.0518682  -0.1473743   0.1405122   0.0325155  -0.1153191   0.4278962
  -1.2198640   1.6940660   1.5522767   0.5119202   0.0822522  -0.7338908
  -0.1064892   0.0540914  -0.3689198  -1.1344464   0.7655708   0.9912245
  -1.0403926   0.2167807  -0.2029263  -0.0672609   0.1591796   0.0645624
  -0.3000404  -0.9122030   0.2114451   1.5096743   1.4027114   0.5354345
   0.1887008  -0.0218434  -0.3363288  -0.8033984  -0.3285804   0.5146317
   0.3661044   1.5839053  -0.6183290   0.1242060   0.4024132   0.0384225
   0.8048606   0.0959622   0.6606523   0.1847893  -1.3390417  -0.6155892
  -0.2753000  -0.1837908   0.1956392  -0.6618528  -0.3485802  -0.9385778
   1.1914896   0.1311326  -0.7045736   0.1165134  -0.1070096  -0.4327701
  -0.3641149   1.3579290  -0.1142716   0.4623174   1.1364003   0.5377731
  -0.1231541   0.2672707  -0.3144706   0.5225621   1.5618843   0.2450212
  -0.2490650  -1.3639972   0.5837842  -0.0669806  -0.4344716   0.1265602
   0.3800047  -0.7155622  -1.0037816  -0.1137966  -0.0753411  -0.0500781
  -0.1873136   0.2042533   0.0980756   0.3195301   0.6920065   1.9591827
   0.6506978   0.6197556   1.7156662  -0.0343428   0.1818117   0.3237499
  -0.3986063   0.5475061   0.4893823  -1.1232798   0.0685058  -0.0179126
   0.1248682  -0.0800393  -0.1548479  -0.6056424   0.3784318  -0.1010442
   1.5932337   0.0632700  -0.1846408  -0.0840886   0.1027562   0.1513617
  -0.4942123   1.0673960   0.5979470  -0.5560576  -0.5937070  -0.6769285
   0.1238591  -0.0513110  -0.0100575   0.8113961   0.8506047   0.4555773
  -0.6796378   1.3020873  -0.1055383  -0.0513181   0.2626841   0.1001872
  -0.4498716  -0.1184844   0.6312056  -1.3227639   0.9055084   0.5118122
   0.2393573  -0.0290666  -0.0860693   0.1247508  -0.6863505  -0.0902155
  -0.5926540   0.6782982  -0.0592872  -0.3024689  -0.0271250  -0.0220844
   0.3213049  -0.6392843  -0.5972518   0.0644127  -0.5460727  -0.2963265
   0.3152502  -0.1163833   0.2296782   0.8129163   0.4838171   0.2432255
  -0.8821644  -0.1483010  -1.0105681  -0.0360457   0.2312831  -0.1301408
  -1.8877686  -1.0963743   0.6145077   0.5004787  -0.6670212  -0.5328165
   0.1555611   0.1603532   0.0771550   0.2005790   0.6680894  -1.3565508
   0.8030456  -1.1174366  -0.3203855  -0.2371899   0.1533710   0.0900199
  -0.7248896  -1.4768523   0.2788283  -0.6791472   0.2551869   0.4885370
   0.2361564  -0.2096230  -0.2831549   1.6265240  -0.5017313   0.9404352
  -1.9175875  -1.0111786  -0.4333864   0.2914086   0.1622185   0.4235553
   2.8606749   0.0484994   0.8327336   0.6190098   0.5476668   0.9140196
  -0.0068548  -0.4085991  -0.1210956  -0.3595400  -0.3867345  -0.0340836
   0.0665957  -0.6400000   0.2145330  -0.3651783   0.2304972  -0.0845317
  -0.9662115  -0.4552295   0.5103404   1.2882993   0.2895427  -0.5148275
   0.0408991   0.0823013   0.6031386  -0.0598229  -0.0191053  -0.6654379
   0.7215425   0.8154342  -0.9249272   0.0594540  -0.2460260   0.3443879
   0.3216236  -1.1143464  -0.5284671  -0.4976830   0.4466383  -0.7884572
  -0.0562866  -0.0234084  -0.0573914   0.5568813  -1.2046601   0.5283409
  -1.0212814  -0.1122208  -1.1524854  -0.2375860  -0.2868849  -0.0133031
   0.1610286   0.3381894   0.2463137   0.0022886  -0.3163589   0.3038510
   0.0297513  -0.1974076  -0.0814083   0.7828558  -0.7800777   0.4823441
   0.0753474   0.1874376  -0.5986402   0.0910107  -0.0356231   0.2339522
   0.0280565   0.2290924   1.0728426   0.2191455  -1.3519565  -0.8482968
   0.1820202   0.2778020  -0.2232832  -0.3047694  -0.1472497  -0.0279822
   1.1725324  -0.2663190  -0.7228100   0.0772101  -0.1162753  -0.1453518
  -0.7285231   0.1497421   1.0126894  -1.2387106  -0.3353436  -0.2906266
   0.3196739  -0.0434832   0.3636034  -1.3237926  -1.1692430   1.2669846
  -0.1278716  -0.3257087   0.3633878  -0.0523152   0.1401819   0.2360227
   0.2361661  -0.8675315  -0.4800605  -0.6622825  -0.0841940   0.0355827
  -0.4010939  -0.0269131  -0.2035475  -1.1611791  -0.2893420   1.1638395
   1.1989866   0.8703634  -0.9680431  -0.2658395  -0.2200923   0.1666249
  -0.0365824   0.4912020  -1.4816581  -0.6350669  -0.5681719  -1.2676005
   0.2525829  -0.1862598  -0.1952061  -0.8004388  -0.0794304   0.4932126
  -0.6938384  -0.9418454   0.5253479  -0.1726701  -0.2817028   0.0847474
   1.0489986   1.1128970  -0.2743159   0.1164411   0.5380133  -0.8516855
   0.1635746  -0.0600995   0.0064058  -2.2680762  -1.2310476   0.7851554
   0.8333727   0.7855507   0.6775399  -0.1758348  -0.1333201  -0.3788460
   0.4309838   0.1423455   0.9085176   0.9199377  -0.0833820   0.1395901
  -0.2035322  -0.1073901  -0.0663216   0.3694500   1.4903330  -0.5083683
  -0.2020812   0.3155716  -0.5011635  -0.0100343  -0.1722657   0.2287188
  -0.5755250   0.8739389  -0.4498355   0.1911392  -0.4263224   0.1586577
  -0.0337800   0.1200770   0.0081799   1.2999593  -0.0310381  -0.7011355
   0.9753134   1.6173365   0.2369218   0.5718443  -0.1676522  -0.0123751
   0.3656511   0.3276622   0.5955802   0.4377197  -1.0801566  -0.5181617
   0.0738982   0.1392227   0.0077971  -0.7869470  -0.6913604   1.5480762
   0.0067897  -1.1649015   0.2750750  -0.1962127  -0.0873028  -0.3640028
   0.3785284   0.2235193   0.3675460  -0.4701025   0.0658766   0.2890474
  -0.0024899   0.1002945   0.0860728   0.6305367   0.3158318  -0.5672954
  -0.4835579   0.0151743  -0.7310583   0.1885604  -0.0089757   0.1363680
  -0.8208954   1.5799940   0.9292589  -0.5418731   1.6212019   0.4802939
  -0.1799287   0.2031537   0.0890498   0.2918168  -0.6164244   0.6389698
  -0.3229608  -0.4795952   1.1533933  -0.2365296   0.0519088  -0.0670008
   0.1604672   1.7350641  -1.6102690  -0.2239724   0.0253767  -0.6655831
  -0.1105670   0.0258035   0.5288084   0.1616622   1.1988059  -0.5786942
   0.3025906  -1.2602141   0.1325848   0.2378395   0.2213464   0.3709520
   0.4694033   0.9798375   0.4200723   1.8858633  -0.3755019   0.1939368
  -0.0280151  -0.0177688  -0.1995995   0.0297138  -0.0577577  -0.1336255
  -1.4208735  -1.7588054   0.4961035   0.2116180   0.1856710  -0.3264334
  -0.3110601  -0.8312485  -1.5734485   0.1129093   0.3741195  -0.7764499
   0.2245703   0.0386307  -0.0872911   1.2589846  -0.2556127  -0.2414232
  -1.9244921   0.3721335   0.2267972  -0.0728801   0.3080399  -0.0658182
   0.6890167   0.2842838  -0.0879704  -1.0569659   0.5212997  -0.3140680
   0.0268125  -0.0142980  -0.1065816   0.6191742   0.2480162   0.5111516
  -1.0634176   0.2595771   0.6463259  -0.0433231   0.1882726  -0.4043372
   0.2673790  -0.6761991  -0.6911299   1.2747741  -0.3985548   0.4780880
   0.0273905  -0.1325256  -0.2601877  -1.3332307   0.1825428   0.0778669
   0.3970028  -0.4577756   1.0893116  -0.2922069   0.0019584   0.1207238
  -0.5802106   0.6477712   0.2031686   0.1549477  -0.2891836  -0.1042007
   0.2029218   0.4774272  -0.3823598  -0.2385764  -0.5390787  -0.7222061
  -0.5936905   0.2082985   0.2476199  -0.0347098   0.2553578   0.0347940
  -0.2932531   0.3052831  -0.8767765   0.0981310   0.0108947  -1.4727217
   0.1571401  -0.0773008  -0.0022235  -0.1395007  -0.1676484  -0.1948288
  -0.2174754  -0.2506601   0.3502303   0.1421658   0.0801473   0.2916521
   0.3031789  -0.3006983  -0.1159596   0.4350567   1.7286633  -0.4356607
  -0.1787369  -0.0057334  -0.0682593  -0.0710735  -0.4225498  -0.7199988
   0.6344125   0.7764865  -0.3052230  -0.2903635  -0.1100310   0.0847020
   0.6421102  -0.9678949   1.0456671   0.8379424   0.6860173  -1.2788384
  -0.1074690  -0.1113746   0.0922563   0.1481345  -0.0179294  -0.0925240
  -0.4591441   0.2138759   0.1795185   0.3884752   0.0609890   0.1775021
   1.5791637  -1.1378809  -0.4842387  -1.8170047   1.1390119   0.3112723
  -0.0243228   0.3367694   0.0866561   0.1899016  -0.9667458  -0.3545144
  -0.6387240   0.1566093   0.7714040  -0.0677484   0.3823382  -0.1048507
  -0.4108282  -0.6811624  -0.5741110   0.1385389   1.5625143   0.6121787
  -0.1062575   0.1247987   0.2371046   0.6960613   0.7011435   0.0088033
   0.1907421   0.2379613  -0.3918378   0.0366476  -0.0329102   0.2501069
   0.6191600  -0.2764409   0.9738835   1.2235436  -1.0976187  -0.0200791
   0.3503325  -0.1184240   0.1622596   0.2526522  -0.6081849  -1.0711805
   0.8226371  -0.7744358   1.9154769  -0.1188875  -0.0023123  -0.1670587
   0.1708605  -1.3604568  -0.6327206  -0.4527632   0.0721024  -1.6174762
   0.0929834  -0.1153588  -0.0171818  -1.0765047   0.3743320   0.8670204
  -0.0349363   0.7533710  -0.1389668  -0.3465089   0.2321308   0.2207744
   1.1309439  -0.9520982  -1.1856550   0.3394470  -1.6596799  -1.0172181
  -0.0708969  -0.3023801   0.1115232   0.4552833  -0.7904319  -0.5621413
   0.3668412   0.7216262  -0.1203251   0.0802394  -0.2755274  -0.1311020
   2.1010041   1.6303319  -1.8104436   0.3536367   0.1547894  -0.6529183
   0.0963298  -0.1285117  -0.0668082   0.1055135  -0.4450941   0.4095484
   0.9828123  -1.0398431  -1.2450140   0.0297903  -0.1089419   0.1716628
  -1.4400030  -0.2059150   0.6797863  -0.4772082  -0.7136456  -0.5776173
  -0.0069345  -0.0383133   0.2913340   0.2888003  -0.9551564   0.0734109
   0.3629384  -0.6744887  -0.8158543   0.2617525  -0.0177398   0.0244582
  -0.4680878   1.5643824  -0.8820813  -1.4508495  -0.6465605   0.6721695
  -0.1489261  -0.0881046   0.2168510  -0.8556276   1.1563123   0.1423613
   0.0095432   1.2314907  -0.2512803  -0.0091208  -0.2096296  -0.0180974
   0.3613162   0.4270405  -1.0221679   0.4493471   0.9873882   0.5401422
  -0.0927840  -0.4588416   0.2053626  -0.2813501   0.5758356  -1.1335125
   0.5526172  -1.2459315   1.4333683   0.0311945  -0.0861099  -0.2498274
   0.1350453  -1.2567977  -0.1379701   0.3008492  -1.1772493  -1.0339198
  -0.0919726  -0.0341257   0.1668019  -0.4195829   0.5145423  -0.1327527
   0.7264819   0.6585180   0.9852828  -0.0816928   0.2557546  -0.2585777
   0.0243569  -0.4634686  -0.5170380   0.0652924  -0.6896992   0.6051255
   0.1362905   0.1449560   0.0333306   0.1699106   0.3150336  -0.3500527
   0.5100084  -0.4313383  -0.8693354   0.3883991   0.0215205  -0.2992513
  -1.3393366  -1.3366966  -0.2397872  -0.6367535   0.0622640   0.1689735
   0.3220080   0.0109657   0.1373590   0.4497824  -1.8615304   0.8708375
   1.2303988  -0.4636624   0.4329066  -0.0793642   0.1367529  -0.0019875
  -1.0198526   0.3852845   1.0997497   0.9019395   0.4827397  -0.5075986
  -0.0132334   0.2902755   0.1478892   0.7190509  -0.4022920   0.0584072
   1.0097204   0.3386909  -0.3276719   0.2605355   0.0443259  -0.2342096
  -0.0079055   1.3455937  -0.5512846   0.6044617  -0.0695597  -0.9177000
  -0.0196453   0.1141573  -0.0681969  -0.5958527   0.0564496  -0.2430180
  -0.1320251  -0.4715219  -0.9657746   0.0688545  -0.4294651   0.0045004
  -0.6023300   0.8319337  -1.0053929   0.1811028  -0.4073187   0.1679163
   0.1885836   0.0977476   0.2338908  -0.1999881   1.1520636  -1.2579682
  -0.3147123   1.1850814  -0.8017511   0.0183094  -0.2353546  -0.0774963
  -0.1683633   1.2982507   0.6264482  -1.4073181   0.5641677  -0.5652143
  -0.2922160  -0.1684206  -0.4110061   0.4507277  -1.2674173   0.2994967
  -0.1186883  -0.2907694  -0.6488431   0.0636738   0.1148112   0.1801670
   1.4755948  -0.9101688  -0.1164484   0.7476975  -0.3755654  -0.8837147
   0.0196917   0.0308789  -0.3358096  -0.7454469  -0.9545267  -2.1836867
   0.2531088   0.3239306   0.4488413   0.0793552  -0.3344367  -0.2455556
  -1.4218099  -0.0627452  -0.3937459   1.2899846   0.4719038   0.1744391
  -0.1141246   0.2090513   0.1092662   0.4508992   0.1129409  -0.5390199
   0.0650595   0.2426491   0.7177368   0.3645858  -0.2476643   0.1273933
  -0.4508129  -0.4895483  -1.8815590  -0.0717717  -0.8214582  -0.5683657
   0.0672032   0.0131463   0.0384556  -1.1776670  -0.3552711  -1.1848708
   0.6566976   0.4153147   0.2709357  -0.0002924  -0.2692240  -0.1863386
  -0.3551161   0.4816917  -1.1311859   0.3736914  -1.7672216  -0.3214643
  -0.1165133  -0.1169270   0.1989065   1.0825219  -1.3604969   0.2662113
   0.3479088   1.2382226  -1.2396867   0.0799119  -0.1447613   0.0602656
   1.6077343   0.2820901  -0.7362576   0.7420694   0.8549138   0.9044546
  -0.1245481   0.1171883   0.1589967  -0.0155792   0.6351730   0.3172199
  -0.1593675   0.0384009  -0.9749253  -0.0295885  -0.1323045   0.1462335
  -0.9847583  -0.5352646  -1.5615078   0.8730104   0.0169029   1.5249068
  -0.1843686   0.0323256   0.0170944  -1.2572726   0.7162773   0.8308837
  -1.5576279  -0.7575948  -1.3635569   0.0187219  -0.3852523   0.0671107
  -0.3243657  -0.4888910   0.1832775  -0.9502676   0.5370470  -1.3348726
   0.2665753  -0.2697923  -0.4002629   1.1201339   0.5456414   0.7752905
   0.9325876   0.6632248   0.5293268  -0.1942903   0.3078856   0.1047507
   0.3673377  -0.6272913  -0.1722253   0.6120099   0.5823059   0.5703107
  -0.0672283   0.0854265  -0.1740773   0.3674268   0.6286362   1.2872630
  -1.0265200  -0.3211101   0.5900453  -0.0896136  -0.0791941   0.5083272
   0.6065837  -0.3203773  -0.4777544  -0.8087347  -0.1840059   2.1159890
  -0.0324053   0.0294182   0.2530912  -0.2469234  -0.2013752  -0.2179824
   0.9967136   1.5049835   1.0414090   0.1077559  -0.2317360   0.0436951
  -0.0053920  -0.6559321  -0.7302842   0.7358177  -0.2525440  -1.3839192
   0.1885239  -0.0633535   0.2744526  -1.2098765   0.6692622   0.2386542
   0.4165824  -0.2876786   0.6024525   0.0080253   0.3062290   0.0859575
   1.3615735  -1.8550119   1.9038453   0.1253499   0.0472593   0.5067592
  -0.0509324   0.1037977   0.1813822  -1.5016187  -0.3729008   0.0598575
  -0.4101343   0.0048514   1.1103660  -0.2895876   0.1117953   0.2900440
   0.5133564  -0.1489017  -0.4279102  -0.0775531  -0.0437591   1.1963500
  -0.0197713  -0.2895299  -0.2436282   0.2891936   1.6378124   0.5342456
  -0.5818977  -0.4248492  -0.1458731  -0.1946821  -0.0539499   0.0877401
   0.0014174   0.6573002  -0.1369018  -0.0666555  -0.8765457   0.0859904
  -0.4289125  -0.1331573  -0.0000981   0.0951422  -0.5391085   1.1275629
   0.0835920   0.5961398  -0.2067804  -0.0068374   0.2090418   0.4496464
   0.2297001  -0.7752474   0.2690481  -0.3341857   0.0694254  -0.4621727
  -0.0224772  -0.2658353   0.2105020  -0.1604632   0.3234492  -0.0167279
   0.5621051  -0.4929215   0.0888083   0.2126516   0.3597973  -0.0496184
   0.4093100   0.1880759  -0.6417276  -1.3035449   0.0803843  -0.0784411
   0.1846503  -0.1978335   0.2647842   0.4726133  -1.5074117   0.8545588
   1.3126702   1.0280068   0.1255566  -0.2755939  -0.1962592  -0.0368650
   1.4523822  -0.2443027  -1.2273445  -0.5821098   0.8408788   1.6757447
   0.2485226   0.3578371   0.1731198  -0.8298370   0.0080166   0.6096898
  -1.0362446   1.0996457  -0.8952220  -0.1548119   0.2011444  -0.1219350
   0.0301334  -0.1755164   1.1012152   0.4641685   0.7332886  -0.2478444
   0.1364575   0.0648642  -0.2332414   0.7952480   0.6561738   0.3243293
  -0.3821141   1.1994919   1.0978203   0.0815570   0.2298966   0.0520641
  -0.2942655   0.4232631   0.3943690  -0.3165794   0.1293102   0.4923411
   0.1448436  -0.1382672   0.1443198  -0.0960255  -0.2557116   1.7315353
  -0.4569148  -0.1236018  -0.8980008  -0.4537495  -0.2212111  -0.1404984
   0.0650655  -0.3124024   0.0519310  -1.0291924   0.2526559  -0.7980502
   0.1040757   0.1818122   0.1925381   0.1394975   0.1783737  -0.6587490
  -0.4432686  -1.2345306  -1.5016910  -0.0144660  -0.1405111  -0.0166535
   0.5374374  -0.1558550  -1.3894635   1.6959496  -0.6628600  -0.6348395
  -0.2689878   0.0311776  -0.0660241  -0.0051857   1.0013028  -0.3035082
  -0.2554098  -0.3677014   0.0553966   0.0310350  -0.0230969   0.2391783
  -0.5203113  -1.1051922   0.5385944  -0.0353065  -0.0104707  -0.4021381
   0.1627277   0.0866542   0.1165603  -2.7402258   0.1141572  -1.3770685
  -0.7590692   1.3074005  -0.4474349   0.1890293   0.1096345   0.1469646
  -0.2727529  -0.4392712   0.7915636  -1.5446736   0.7376457  -0.2525391
   0.1209875   0.0571608  -0.2635908  -0.4928987  -1.3175392   0.5218749
   0.1646807  -0.1596966  -0.2587370   0.1375390  -0.0074221  -0.0256718
  -0.0082763  -0.4331542  -0.2859337  -0.1480558   0.1467437   0.9102277
   0.0864952   0.0136892   0.0860523   0.7469446   0.5389279   0.9659467
   0.3797247  -1.2492176  -0.4647581   0.3190130   0.1011048   0.0059459
   0.1294927   1.5024251   0.8882416  -0.0486721   1.1293188  -0.2859613
  -0.0676363   0.0825928   0.3493066   0.0712673   0.5170439  -0.7053533
   1.4217905  -0.3827195  -0.3287499   0.2619935   0.0982925   0.1354804
   0.3371062  -0.2226731   0.7991118  -0.2967668   1.3454987   0.6707174
   0.1564679  -0.3714374   0.1720281   0.0367172  -1.2413089  -1.3417002
  -1.0576200   0.4837805  -0.2225112  -0.0348052  -0.0423441  -0.1056200
  -0.4067689   0.1425473   0.9500340   0.8202502   1.3901770  -0.5389162
  -0.2005540  -0.3583294   0.0025039  -0.4194556  -0.3097982   0.3397918
  -1.1068393   1.8035817  -0.0897711   0.1233049  -0.0255167   0.0406251
   0.5055845  -0.0418029   0.1692804   2.3258586  -0.5068442   0.7479680
  -0.2036079   0.0908288   0.2283087  -0.1985495   0.2917656   1.0368631
   0.1893136  -0.7897248  -0.5296755   0.0955204   0.0065406   0.1189720
   0.6353329  -0.0793914   0.7989088  -0.6184799  -1.4605685   0.8517396
   0.2093863  -0.1379137  -0.0795239   0.5948970   0.6002226  -1.2232666
  -0.4298025  -0.5866069  -0.1631788  -0.1729200  -0.0857191   0.2072309
   0.8582050   1.1650306   1.2705812  -0.5719323  -0.3385608  -1.5477120
   0.1198324  -0.0665545   0.0316837   0.6604459  -0.3692412  -0.5189311
   1.6870286   0.4844049   0.5082039  -0.1253838  -0.0519137  -0.0618138
   0.0440334  -0.5582814   0.0334335   0.2480562  -0.4046708   0.2014917
  -0.2903747  -0.2847372   0.2269554   0.1675936  -0.4660195   0.4287679
  -0.6628869   0.1494026  -1.7611451   0.1534947   0.2182023   0.3856409
  -0.7712771  -0.4975875   0.3578523  -0.7050637   0.4383755   0.4485587
   0.1925175   0.1872484  -0.0300425   1.0053450  -0.4865254   1.2366146
   0.3516052   0.5555001   0.4350432   0.2404145   0.2347665  -0.0989651
   0.3104692  -0.2316198   0.2501265   0.3708763  -0.4831175  -0.2680876
   0.0117764   0.2112403   0.0944409  -0.7030458  -0.0800604  -0.4991846
  -1.5514872   0.7306718  -0.3284370  -0.0354851  -0.0980752   0.4803291
  -0.6937307   0.0596842   0.0075189  -0.9374937  -0.2554927   0.1380083
   0.0755818  -0.0672656   0.1331354  -0.1014403  -0.1734210   0.3942807
  -0.3780124  -0.1139008  -0.5460429  -0.2051810   0.0577816  -0.0779941
   0.1093340   0.2880527   0.7667613   0.6355153  -0.3844544  -0.3563557
  -0.1663272  -0.3024577  -0.1923278   0.4662367  -0.7130171  -0.6711673
   0.3557363  -0.0267249   1.1611422  -0.0454089   0.0281734  -0.4230008
   0.0107976   1.8446251   0.8162127  -0.5762067   0.3573430  -0.8262878
  -0.0479416   0.3424233  -0.0614351  -1.0694500   1.2979810  -1.3924266
   0.6599569  -1.2496260  -0.0939705  -0.0774733   0.1325505   0.2924566
  -0.7729135   0.4996305  -1.2732012  -0.3152898   0.7573217   0.1188848
  -0.0090817   0.1500681   0.0165683   0.3109069   0.1156963  -2.0719700
   0.9647939   0.0910135   0.4313430   0.2690574   0.2400580  -0.0843534
  -0.8557084  -0.4940587   0.3170295  -0.1288764   1.2412225   1.6971053
   0.1585523  -0.0249556   0.0452955   0.3494870   0.1766008   1.0721067
  -0.6177219   0.7613386   0.7620031  -0.2298472  -0.1862517  -0.0412019
  -0.3329189   1.6256218   0.5204594   0.5525442  -0.2785549  -0.0591199
  -0.0837085  -0.0510333  -0.3064156   0.6273390   0.2131618   1.6255974
  -0.8552783   0.2913276   0.1366685  -0.2313628   0.2600117  -0.0394342
   0.8504968  -0.1921428  -0.5371156  -0.1421548   0.1250391   0.1023884
  -0.0234163   0.1570574   0.0212936  -0.0697958  -0.1168153  -0.0132753
  -0.8449720  -0.1156925   0.4435631  -0.0058908   0.3992855   0.1961035
   0.3391313   0.6298127  -1.3203639   1.6084286   0.5993259  -1.0318918
   0.3624457  -0.0609227   0.0094344  -1.8766631   0.4412436   1.3889248
  -0.0397780  -1.3598473  -0.4241397  -0.0706635   0.3512771  -0.1414713
   1.2374150  -0.3708014  -0.6108474   0.8736796   1.1853521  -0.2730790
   0.1641951   0.0235011   0.2005745   0.9936755  -1.0033699  -1.0011863
  -1.7852489   0.2213698   0.5007667  -0.1787714   0.3280944  -0.0026185
   0.3814468  -1.2154698   0.7933853  -0.4659896  -0.0145914   0.7779167
   0.2913622  -0.0272071   0.3376105   1.3239954   0.7275430  -0.4879247
   0.3580216  -0.1881493  -0.0040296   0.0097669   0.2335509  -0.1520474
  -0.6704288   0.1899732   0.5903258  -0.0237570  -0.5551965  -0.9695275
  -0.0910697  -0.2078838  -0.4674743   0.0979942  -0.4151888  -0.6511433
  -0.7849890   0.1917588   0.1718149   0.0438779   0.3188586   0.3040892
   0.0694661   0.0891723  -0.8378879   0.6142587  -0.6935479   0.4739874
   0.2823649   0.0054028  -0.1020624  -0.3842390   0.2208744   0.2449536
   0.4135010   1.3349196   0.2428733   0.0145376  -0.0527834  -0.2035138
   0.0260521   0.7351872  -1.3005370   0.1272076   1.3808764  -0.2576868
   0.1212271   0.0766496   0.1510533  -0.3882609   1.6086321   0.0509241
   0.5247775   0.1852448   0.4308399   0.2767490   0.2250237   0.2796360
  -0.5078763  -0.7584300   1.7751307  -0.9843522  -0.1779426  -1.1131810
  -0.1515745  -0.0384906  -0.0125261  -0.2007377  -0.4047780  -1.5410759
   0.1789102   0.4763195  -1.7129538  -0.0435805  -0.1466789  -0.0234323
  -1.0319895  -0.0050812  -0.8663030   0.6185735   1.8113140  -0.7408401
   0.0574729  -0.1392534  -0.0008316   1.2968982  -0.4180244   0.5751833
   0.7102755  -0.0583292   0.7958222  -0.0462599  -0.4051655   0.0514326
  -0.6883027  -0.1642335   0.3493224  -0.5671358  -2.3176877   0.6266643
  -0.1049418   0.2063328  -0.0329423  -0.1017951   0.0829398  -1.0612774
  -0.2317908  -0.6536629   0.9242579   0.2087051   0.0054434   0.1963899
   0.0972725  -0.3645888   0.3826236  -0.3738114   1.0549730  -0.1536092
  -0.1817041  -0.4243341   0.1774012   0.8960498  -0.3948863  -1.3211907
   0.1790260   0.2480312  -0.3289861  -0.1238933  -0.1185289   0.1336264
  -0.0200854  -0.2439680   0.9504412   0.0548615   0.6204553   1.2236336
  -0.2235599   0.0639026   0.1412950  -0.3584742  -0.6732165   0.4951071
   0.2860280   0.6782690   1.2827684  -0.0558931  -0.1023807   0.2122542
  -0.9724361   1.3567709   0.0828568   0.5370143   1.0381033   0.1147727
   0.2555663  -0.3253074  -0.2138366  -0.9430317  -0.5422670  -0.6413983
  -0.6686769  -0.7022317   0.7943057  -0.0695316   0.1928087  -0.2449849
   0.3742325   0.7215969  -0.0689766   0.7762910   0.9950026  -0.8585837
   0.0636990   0.1141879  -0.0924352   1.0035686   1.4500616   0.3180783
   1.5482543  -0.0898646  -0.0387542  -0.1524117  -0.3112183  -0.0478442
  -0.1831716   0.3285874  -0.4970972   0.5660594  -0.5889357   0.7270371
   0.0064104   0.1449384   0.0931866   0.7086303   0.5829903   0.2216849
   1.3383347   0.1725509  -0.1245668   0.1481269  -0.0890932  -0.2102920
   0.7022204   1.1944931   1.0841062  -1.7942302   1.6167278   0.3831584
  -0.2556485   0.1238051   0.2937837   0.1813002   0.9772533  -0.1065820
  -0.4735687  -0.5906361  -0.5945454   0.0604941   0.1134420   0.2062134
   1.5633806   0.7702444  -0.9163727   0.9941936  -0.1518672  -0.1843835
   0.0626909  -0.4408883   0.2075796   0.1712608  -0.1797587   0.6077485
   0.2910250   0.4443651  -0.2630669   0.0223285   0.5411205  -0.0565902
   0.4446546  -0.4298210  -0.9651941  -0.2371579   0.7091331  -0.1622005
  -0.2924153   0.1032788  -0.2290264  -0.9307090   0.9151160  -1.1242427
  -0.2813216   0.1017369  -0.6523457  -0.0230016   0.1222927  -0.1174962
  -0.9274226   0.3823757   0.1929304   0.0769930  -0.2683982  -1.1969029
  -0.2707429   0.0015345   0.2166184   0.8382543   0.2002684   2.1797729
   0.4787018   0.0836278  -0.2540765   0.2090984  -0.4741817  -0.1745878
  -0.6258688  -0.2344151   0.2691572   0.0560036  -0.1644851  -0.7542334
  -0.1209920  -0.1098569  -0.0879123   0.7607346   1.4946365   0.8565414
   0.1850239  -2.0241520   0.4576719   0.0959592   0.3594054  -0.3565668
   1.4017085   0.3708686   1.5160657  -1.6636859   0.8250622  -1.2327212
   0.1838619  -0.2222681  -0.1185284  -0.1298287  -0.5962077   1.2102067
  -0.6064835  -1.3064524  -0.2491543   0.0843687  -0.2113104   0.2327039
   0.6433215  -1.6114032   0.3824935  -0.3290969   0.1340822  -0.1382019
  -0.0099931  -0.0806144   0.0819624   1.6011912   0.0729338   0.3407166
   0.1681019  -0.3292291   0.3719877  -0.1565145  -0.1829892  -0.2628173
  -0.6344957  -0.1653900  -1.3241869  -0.2678523  -0.4622675   0.7411402
   0.0682017   0.1579569  -0.1787046   0.0142724  -0.9275613  -0.6995018
   0.2629206   0.9495175   0.2684322  -0.0019765  -0.2892962  -0.2725580
  -0.9070290  -0.2166812   0.4975992  -0.4904754  -0.6853157  -0.0735496
  -0.2652229  -0.1094486  -0.0516373  -1.7850713   1.2775986   0.7908062
   0.8324992  -2.0190313  -1.4633639  -0.2297621  -0.1795784   0.1392403
  -0.0021446   0.9280002  -0.5820605   0.3133976  -1.9524918  -0.8688512
  -0.1111716   0.0537436  -0.0052922   0.4900365  -0.2712442   0.3703094
   0.0569821  -0.6039362   0.2383376   0.2359991  -0.2217657   0.1922924
   2.4715965   0.0555657  -0.8816340  -0.5013979   0.3843238   0.8412269
  -0.3524627  -0.1787188   0.2142062  -1.0328878  -0.1624454  -1.6791977
   0.6273397  -1.4358081   0.3433886   0.1681483   0.0845756  -0.1880986
  -1.2543136  -0.7769629   0.4477023   1.9366504  -0.1758200  -0.3309960
   0.3191372  -0.1540135  -0.0105120   1.9603904   0.4306802  -0.1866732
   0.9810275   1.1572677   1.5947402   0.3050075   0.0492740  -0.2416500
  -0.0314133  -0.1285748  -0.5064642  -0.1461024  -0.4177804   0.9604720
  -0.0242935   0.5144989  -0.2608982  -1.3937851  -0.1372854  -0.1229480
   0.2441792  -0.3582384  -1.3724568  -0.1857025   0.2181840  -0.0625334
   0.2550012   0.3544917   0.6988602   0.7916685   0.7638990  -1.3418922
  -0.2050678   0.0862143   0.0876389  -0.9468130  -0.0321872  -0.4266756
  -1.1302571  -0.0629100  -0.8024068   0.1978884  -0.1698879   0.3561324
   0.9455140  -1.8288770  -1.6793468  -0.1185474  -0.1299484  -0.6348765
  -0.0799400   0.1384216  -0.0150943  -0.0681638  -1.4952339   1.3212961
   1.3161227  -1.3465575   1.2406458  -0.2770427  -0.1145469  -0.2158076
  -0.6867554  -0.6681651  -0.6172547   0.5597218   0.6093054   0.1742738
   0.0994394  -0.0212320  -0.0768977  -1.3416661   1.4262892   0.2084118
  -0.7234725   0.6043928   1.7184697   0.0592041  -0.0119290  -0.0401618
   0.1373246  -0.1807905  -0.6841871  -0.2527349  -1.6029774   1.2301019
  -0.1227737   0.0570173   0.2772512  -1.4717202   2.1273758  -0.8323088
  -0.3384882  -1.3303161  -0.2220106  -0.2524185  -0.3732298   0.0631056
  -0.7024608  -0.5762080   0.0361215   0.9798315  -0.0205121   0.0671260
   0.2142758   0.1770749   0.1481563   0.7159811   0.2788682  -0.5760310
   1.6880244   0.1780216   0.7028026  -0.0165316  -0.0728429  -0.1897434
  -1.0066153   0.4857826  -1.2448797   0.2524726  -2.0752132  -0.7257967
  -0.1545384   0.0184206   0.0386778   1.6191018  -0.5180981   1.3545395
   0.8621689   0.3954653  -0.5503739  -0.0172620  -0.4635833   0.3394891
  -0.7070564   0.9556154  -0.1048024  -2.1545842  -1.1749012   0.7186483
   0.0819907   0.4109279  -0.1456905  -0.5557174  -1.2557721  -0.4843145
  -0.1451851  -0.6329451   0.3960264  -0.1174133  -0.1262056   0.2502781
  -0.5826892  -1.2383593  -1.3806974  -0.5373955  -0.9929467   0.5490306
   0.1614446   0.2013718   0.3286332   0.1243122   1.4939373  -1.9121139
   0.8356591   0.5882769  -0.6964378   0.1569670  -0.2438702  -0.0538190
   0.8081751  -0.1878762  -1.7382990   0.5590720   2.3292210   0.6496130
  -0.1074975   0.1770723  -0.1202163  -0.1506076  -0.8393680   0.3821275
   0.6221789   1.8550549   0.2271464   0.0636239   0.3751939   0.0751018
   0.9592681   0.2364077   0.3988084  -0.2792959   0.8530259   0.9403715
   0.1599669   0.1818225  -0.0335142   0.2454466   1.2876086   0.1704242
   0.6969620   1.1454103  -0.3527615   0.2403643  -0.0306467  -0.0320821
   0.3881477   0.0394625   0.9837708  -0.4391115   0.9565648  -0.5535731
   0.1357949   0.1618157  -0.1505096   1.8874605  -0.3450589  -1.8395514
  -1.8659924  -0.1006351  -1.2765144   0.0960370  -0.3578308  -0.3341331
   0.4583644   0.0876483  -1.3060282   0.5509742   1.7362906   0.0351456
   0.3982257  -0.0104814   0.0279828  -0.5886754  -0.1491466   0.3595365
  -0.9282635  -0.4061049   0.2894521  -0.2921442  -0.0230580  -0.0839845
   0.5896920  -0.6528343   0.1534296  -1.6117280   1.0848873  -0.8548986
   0.1804713   0.0764752   0.2447454  -0.4894676  -0.0763066  -1.0076208
   0.8917632  -0.1814735   0.2568610  -0.1611016   0.1176284  -0.3102100
   0.9036145  -0.7709108  -1.2064763   0.9811254  -1.1219009  -0.7495939
   0.2333201   0.1677151   0.1633341  -0.7605163   0.9558522  -0.9582273
   0.0716521   0.4158381  -0.2250126   0.1173807  -0.3385440   0.1625327
   0.2262637   0.1518662  -0.2757344   0.1233516   0.4141541  -0.5599204
   0.2165258   0.0552653   0.2605394  -0.5058236  -0.9657429   0.0341795
  -0.7081497  -0.5175737  -0.5883953  -0.3397938  -0.0288312   0.0142198
   0.5684689   1.3472942   0.0527291  -1.5123106  -0.3921621   0.3659326
   0.1677505  -0.2963277   0.0500964   1.5232382  -1.9475806   0.3095610
   0.4584813  -0.6396633  -0.1366103   0.3016123  -0.1686074  -0.0970850
   0.3338926  -0.3479539   0.3360040   0.2339771  -0.0994796   0.1475670
  -0.1065950  -0.1264019   0.0195696   0.0089714  -0.4424177   0.6946976
  -0.7487187  -0.9496999   0.7040985  -0.0377575  -0.2233593  -0.0264585
  -0.5332054  -2.8190134  -0.4305260  -1.0779256  -2.1618381  -0.1449144
  -0.1125911   0.0149485  -0.0553639  -1.3597848  -0.1383668   0.6166356
  -1.5006317  -0.2715450   0.3700874   0.1663692   0.0660163  -0.1535557
   1.8040640   0.8028626  -0.4360333  -0.8330948   0.6302052  -0.2229225
  -0.2782341   0.0560582  -0.1826110   0.5048848   0.5389116  -0.0030337
  -1.1180159   0.3686936   0.8862001   0.1394442   0.0173183   0.2872959
  -0.6539270   0.0385536  -0.4034156   1.0962356   0.1343929  -0.3303291
   0.3042051  -0.1328320  -0.0920822   0.5894347   0.1477645   0.1978396
  -0.2299345  -0.7972285   0.7097542  -0.0592769  -0.1512769  -0.0354033
  -0.5530081   1.0438242   0.4284756   0.5159006   0.3731958  -0.4414219
  -0.0638671   0.1108867  -0.0140475   0.5108401  -0.6182275  -1.2078276
   0.1429924  -0.9721224   0.5471799   0.0569410   0.0433157   0.1652735
  -0.0094773   0.2933196   0.4813697   0.2945668  -0.4839617  -0.5934769
  -0.3136522  -0.0896660   0.3269857  -0.6998218  -1.0814270   0.7552201
  -0.7452895  -0.6934966  -0.2036022  -0.1489647   0.0739428   0.1736057
   0.5164791   2.7306464  -0.4060121  -1.0953329  -0.6266584   1.2944142
  -0.1259908  -0.0489709   0.1470860  -0.3661468   0.2150451   0.5243678
  -0.1075079   0.7653013   0.6754729   0.2829861   0.0404957   0.2603222
   0.0775229  -0.1327581  -0.0102110   0.0436635   0.6859329   0.4338882
  -0.3973246  -0.1281092   0.1637092   1.1904525   1.0551683  -0.8421299
   1.6340173   0.8040937   0.7595543   0.3045219  -0.1073567  -0.2309428
   1.0862398   0.7130544  -1.4337733  -0.0700679   0.2120983   1.2271433
  -0.3825362   0.1531657  -0.2605592  -0.0777755  -0.4803547   0.1972825
  -0.9966041  -0.2395173   0.1924212   0.2210096  -0.1323151  -0.1307579
  -1.6118648  -0.1037576   0.0741513  -1.2482425   0.0840087  -0.4481120
  -0.0883365  -0.0410219  -0.2219339   0.4574704   1.0010720   0.0917362
   0.2266498   0.1239537  -0.6914719  -0.0775814   0.0383672   0.1018489
  -0.2351823   0.4958892  -0.5001899   0.5908213   1.3905313   0.1141727
   0.1147224  -0.2282188   0.0119899   0.4374138   0.4719756   0.0450349
  -1.2515693  -0.2995100  -1.2928523   0.2024470   0.1897515   0.3180862
  -0.1402515   0.5908437  -0.1267696  -1.0662764   0.5987530   0.2986268
  -0.1811872  -0.1064879  -0.1005222   0.4881245   1.1288913   0.8550043
   0.4133629  -0.2020699   1.7776266   0.3978806  -0.0272801   0.0860444
  -1.0006324  -0.0079823   1.2084024  -0.4350799   0.6701182   0.8918414
  -0.0107713   0.0352062  -0.0068259   1.0445795   0.4196743  -0.0202146
  -0.2238760  -0.6369671   1.4874467  -0.0516116   0.1160424   0.2347861
  -1.2598039   0.5313369   0.0983088   0.0651537   0.6105809   0.2758613
  -0.1339710  -0.2917681  -0.0919738   0.3027216  -0.4934033   0.0848155
  -0.3472677  -1.2086422   0.4380519  -0.0420148   0.2556485   0.2719565
   1.2751602   0.0763572  -1.0697705  -0.9601318  -0.6499976   0.7899290
  -0.2903562   0.2007137  -0.1468033  -0.4852688   1.0278879   0.2386724
   0.1989027   0.7722353   0.5528051   0.1771785   0.2484792  -0.2285362
  -0.0988069  -1.6908147  -0.0963784  -0.4596630   0.2699939   0.1832135
   0.0168107   0.2294263   0.1650094   0.1199915  -1.0115756   1.5741636
  -0.2435924   0.0154307  -0.4776362   0.1821264  -0.1576791   0.2099191
  -0.5939342  -0.8957759   0.3624595  -0.7922971   0.0002622  -1.4617262
  -0.0603524  -0.4716541  -0.1925142   1.3896234   1.0688672   1.3110936
   0.8107740  -1.1727920  -0.3430991   0.0296417   0.0137366   0.0213153
  -0.7009988   0.2067449  -0.2696993  -0.5694832  -1.0059676  -0.2005775
  -0.2151771  -0.0585064  -0.0007943   1.3993136   0.4218684   1.0069276
   0.5405636  -0.7288344   0.4143403  -0.0689620  -0.0494538  -0.3877215
   0.7915856   0.7851740   0.7999863  -0.7705559  -0.3143459  -0.5544575
   0.0696897   0.0317914  -0.2802561   0.2161368   1.3953238   1.1041046
  -0.0180831   1.0273731  -0.4784775   0.1925223  -0.0509362  -0.1310951
  -0.9920744  -0.7583385   0.6893947   1.0721906  -1.5153295  -0.4843485
   0.0287361   0.1008658   0.1401781   1.8539567  -0.7517887   0.1382621
   0.6296323  -2.1305094   0.4406553   0.3495914  -0.1597168   0.0865871
  -0.7455226   0.8091376   0.4999737  -1.8053914   0.6956101   0.6500704
   0.0555140   0.2642987  -0.0077747  -0.0828273   0.3060133   0.7674611
   0.0964071   0.7766951  -1.1596490  -0.0263604  -0.1631878   0.0194606
   0.1936634   0.8877241  -0.0550651   0.5604818   0.5105782  -0.2012399
   0.0769600  -0.0977913   0.1278565  -0.6198338  -1.0635014  -1.2980833
   0.1120089   0.4606714  -0.0971257   0.1931574  -0.0964831   0.2399749
  -0.3834177  -0.2535402   0.1631456  -0.2017885  -0.5844144   0.7416478
  -0.2299247  -0.2894199   0.1918022   0.6674628   0.3778532   0.0168642
  -0.2323754   0.0340052  -0.6153002  -0.0566704  -0.2275220  -0.0661014
   0.4256758  -0.6069824  -0.9019008  -0.7465078   0.5412848   0.4978932
   0.0191607   0.1214521   0.0987714  -0.7591467   1.0524995  -0.8548051
  -0.1050122  -0.0871133   0.1264142   0.2722191   0.3842382  -0.1114383
  -0.7687069   0.3329557  -0.1163356  -0.0232211  -0.1489827   0.5912502
   0.0394293  -0.0462646   0.1607812   1.8566158   0.7929143  -0.0080900
  -1.3943373   0.6385494   0.4326331   0.2077771   0.0932668   0.0076959
  -0.2802207   1.4171101   0.0416835   0.9729375   0.0617488  -1.0764539
   0.0826752   0.0171853  -0.0272938   0.0355370   0.0321374   1.6263767
   0.8014068  -0.9312168  -0.4995259   0.1739822  -0.1566336  -0.2374509
   0.9620229  -1.1681162   0.0398634   0.7467293  -0.0257916  -1.0272136
  -0.0525177   0.1150883   0.2274882   1.4515668  -0.2423778   0.1294277
   0.8639554   0.4268554  -0.6559725   0.0210441  -0.0811582   0.2468759
  -0.8813262   0.2285347  -0.4241686   1.3112807   0.1733927   0.1241328
   0.2744842  -0.0848874   0.2013800  -0.6188744   0.2879013  -0.7758349
  -0.1838969   1.4062871   0.3588226   0.0850457   0.0939484  -0.1049875
   1.0929331   1.0552887   1.1724092   0.6537690   0.0105533   0.1184845
  -0.1747249   0.0064376   0.0945838  -0.3191723  -0.2042012   0.0166554
  -1.2289127  -0.8825196   1.5047692  -0.0856193  -0.3235069  -0.1276396
   0.3917895   0.1026293  -0.5623276   0.4532854  -0.0935860   0.8366565
   0.1089882   0.0269438  -0.4252204  -0.3682016   0.4062050   0.0830665
   0.8901504  -0.1708797   0.4978501  -0.1763409  -0.0994870  -0.2269699
   0.5354396  -0.7028322   0.1675006   0.7354944   0.4208040  -0.4500688
   0.4228322   0.1452973  -0.0403544  -0.3600280  -0.5741813   0.7159491
   0.6996366   0.2981433   0.4539375  -0.0359884  -0.1554417   0.0477350
   0.3657217  -0.0947484  -0.0639696  -0.2009187   0.4452176  -1.2803299
   0.1718542   0.1918677   0.3184023  -0.1017909  -0.8864213  -0.7899036
   1.2494196   0.6824120  -1.3892500  -0.1265420  -0.1585667   0.0875280
   0.3544352   0.5558475   0.5002504  -1.6474156  -0.2362913  -0.4608774
   0.1971595   0.1387504   0.0450793  -0.6514474   2.0029011   0.1124391
   1.4397537  -1.2182915   0.0163624   0.0511070  -0.2005078   0.0988312
  -1.5683358  -0.4663030   0.0030784  -0.3060166   0.4776096  -0.0032500
   0.1219265   0.1171930  -0.0294632  -1.3345547   1.2949539   0.2044829
  -0.3635069   0.4301427   0.3131527   0.3092731   0.1269347   0.3087591
   0.2048882   1.2010809   0.9540198  -1.8262523  -0.7067519  -0.0237529
  -0.2910742   0.1546812  -0.2497057  -0.7726755  -1.4593799   0.9613790
   0.2788182  -0.4906301  -0.5239460  -0.2290145  -0.3326778  -0.2779970
  -0.7474934  -0.9614301   0.5913448   0.6747705   0.1448077  -0.3050163
  -0.4007088  -0.1157090  -0.1082446  -0.6432366   0.4262466  -0.3081138
   0.3733408  -0.2230683  -0.2794871   0.0726410   0.0947562  -0.0657972
   0.0732216   0.7155126   0.5463866  -0.3465079  -0.4457256   0.3531500
  -0.2483326   0.1241720  -0.0007429   0.9533667  -0.1512685  -0.6258285
   1.0010538  -1.4454281  -1.7301086   0.1258400  -0.0036794  -0.1005784
  -0.5225008  -1.4983535   0.8686609   1.1774558  -1.4829129  -1.7972389
  -0.0631285   0.0955621   0.0320999  -0.2244584  -0.8730317   0.7976682
  -0.4448832  -1.3148891   0.2418484  -0.2323558  -0.0529973   0.1885790
   0.0271303   1.3698442  -1.7727430   0.0764600   1.0085779   0.1353311
   0.5019482  -0.0138651   0.3235179  -0.7152852  -0.4885156   0.5531350
   0.4417710   0.6161997   0.0793388   0.1732420  -0.2626815   0.0063383
   1.5460050   0.3804917   0.1542990  -0.2475173  -1.2462112  -0.7837561
   0.1599621   0.1309371   0.2818382   0.3638707  -0.7708610   0.1425662
  -0.3963174   1.0325673   0.5596940  -0.0542627   0.3832705  -0.1532834
  -0.2319042  -0.7359170  -0.4295840  -0.4343470  -0.7424899   0.2168664
  -0.1913221   0.1140075  -0.1354572   0.9443991  -0.4600950   0.4197755
   0.3183158  -0.7499793   0.5220909   0.1360768  -0.1777851   0.3233367
   0.4473815   0.0606701  -1.0497205  -1.5220383  -0.9940515  -0.2530015
   0.1310315  -0.0760566   0.0582286   0.7572982  -1.0106970  -0.3839305
  -0.3764293  -0.7845798   1.0857087  -0.0568650  -0.3208885  -0.2591277
   0.3489438  -1.1029656  -0.1971463  -0.6291031   0.0693903   0.5113031
   0.0677644   0.0649061   0.1001683   0.3272707  -0.0670182  -0.1090212
  -0.2998569  -0.3954268  -0.0688771   0.1704741  -0.0220984   0.3534129
   0.0198922   0.3849941   1.3342781   1.0055704   0.1274820  -0.0756133
   0.1769912   0.0998440   0.0795931   1.0002838  -0.2913214  -1.2580633
   0.3184219  -0.2483259   0.6216968   0.2834670  -0.2149097   0.0475029
   1.1654413  -0.6002697   0.4093625  -0.0979206   0.1456611  -0.9646404
   0.2738779   0.1856623   0.2658352  -0.4408995   0.2794891  -0.8056012
  -0.6163653  -0.0871337   1.0050718   0.0390684  -0.1309816  -0.0553472
   0.6593804   0.2326313  -0.1746412   0.1145504   0.8192170   0.3274837
   0.2047551  -0.0051612  -0.1287982   0.3438753  -0.7322264  -0.2950709
   1.0456327   1.1046274  -0.3206944  -0.0163561  -0.1213669   0.0238254
   0.1839823   0.2931001   0.3224834  -1.3044858   1.3587915  -0.6384799
   0.3257611  -0.0774731  -0.1599406   0.0833077   0.2945852  -1.6640265
   1.5362580   0.8190794   0.8118278  -0.2230708  -0.3111376  -0.2690437
   0.2595307   0.1560322   0.3568489  -0.4249741   0.8314539   0.3345972
  -0.2721119   0.0252829   0.1346825   0.0581101   0.0693816  -0.3806111
   0.7217330  -2.5897381   0.9345267  -0.2173111  -0.2145177   0.0486746
  -0.0391384   0.2324346  -1.0783865   0.4554252  -0.3589604   0.3503109
  -0.3705703  -0.0360678  -0.2597668   0.2454439   1.5582064   0.0181535
   1.4776540  -0.3365859   0.0123865   0.0550860   0.1739866  -0.4331976
  -0.8155095   1.3561713   0.2584631  -0.7097972  -0.3510794  -0.0428872
   0.0167475   0.1296789   0.2115503  -1.3483764  -0.0868436  -1.3232998
   0.3616021  -0.2810547  -0.7985810   0.0507685  -0.0185825  -0.0805964
  -0.8502283   0.2367857   0.4923210  -0.7902545   0.5944341   0.5449151
  -0.1525942  -0.1247729  -0.1422892  -0.5962086  -0.3951851   0.3153676
   0.4221198   1.0612994   0.0908860   0.0513712  -0.0639484   0.0749366
   0.1396479  -1.0345668  -0.6712681   0.3847180   0.4473462   0.2297815
   0.1197031   0.0787217   0.0835798  -0.2988122   0.1734741  -1.5196010
   0.0222745   1.5837544   1.5560776  -0.0700623  -0.1624307  -0.0422193
  -0.8261877   1.2205186   0.0545164   1.0085272   0.1581908   1.5036432
  -0.1305307  -0.0456191   0.0750114  -1.3681407   0.5742828  -0.5704644
  -0.6108035   0.3068761   0.9590955  -0.0363949   0.1970955   0.5598649
  -0.3165821   0.0648832   0.6025010  -0.2973672   0.0503071  -0.5720735
  -0.0639361  -0.1798483   0.0587776  -0.9589792   0.5715188  -0.4360130
  -1.0654736   0.2702910  -0.7390829  -0.0167705  -0.0017948  -0.0540937
  -0.2186355   1.7330223  -0.2127351   1.1515737  -0.2372379  -0.9569272
  -0.1285244   0.1984364  -0.0457741  -0.1643046  -0.5425597  -0.4414807
   0.2800988  -0.5807131  -0.8679250  -0.1754566   0.3744129   0.0035391
   0.0450818   0.0315679  -0.2703403  -0.8633589  -0.5353658  -0.0057249
   0.0228768   0.1376781  -0.0198850   1.6689558  -0.2471813  -0.0905647
   0.0008333  -0.2587241   0.1516323   0.1438630   0.1471192   0.2759293
   1.3829907  -0.5837714  -0.6191192  -0.6624626   1.2216527  -0.2043419
   0.0098779  -0.0394900   0.2315228  -0.6750790   0.7348326   1.0212175
  -1.3274157   0.0777711   0.7145461   0.0513848   0.0608893   0.1228073
   0.6646874  -0.3015577   0.4117519   0.5091851  -0.4417329   0.0932176
  -0.2005154   0.2475149   0.0070712  -0.9296947  -0.2117130   1.1803837
  -0.3849589  -0.1200660  -0.2162041  -0.0439361  -0.1944868  -0.2074273
  -1.0625359  -0.0464512   0.5798362  -0.4967708  -1.3606015  -0.3019587
  -0.0912528   0.2539220  -0.1651088  -0.7193201   0.1693666  -0.2598916
   0.3024285   1.1828567  -0.4058829  -0.1245734   0.0688523  -0.0104798
  -0.1213056  -0.2154459  -0.1124878  -0.7919909   0.1675058  -1.1609429
   0.0971865  -0.0152222   0.0929545   0.1178582  -0.1002688   0.1161219
  -0.8555719  -0.2258110  -0.0699882   0.1040209   0.3890513  -0.0461917
   0.5518982   0.7230970  -1.9626722  -0.6751065   1.4368351   0.7503684
   0.0391921  -0.1173825  -0.1986479   0.4939597   0.0516379   0.7225135
   0.4182674  -0.6242527   1.2067499  -0.1226596  -0.3117290   0.0953407
   0.9113508  -1.0362768  -0.0443715   0.8813301   0.3684516   1.4257466
  -0.3260885   0.2285806   0.3654691   0.1607891  -1.2618164  -0.6834871
   0.1762889  -0.9225954   0.8818430  -0.0353457  -0.2115543   0.3033480
   0.0008338  -0.6386083  -0.7592198   0.7909358   0.5226755   1.1486357
   0.1305278  -0.2904359   0.0185347   0.1807889   0.8567032   0.0237659
   1.2722372  -0.6033198  -1.2180400  -0.0945103   0.4686256  -0.1360603
  -0.1428158  -0.1044903  -0.4374301  -1.1635010   1.3945516  -0.9746663
   0.4124329  -0.0868875  -0.2225755   0.0075856  -0.1449939   0.8874474
   0.3404952  -0.8831856  -0.9727005   0.1039697  -0.0290039  -0.1509863
   0.1127400   1.4674966  -1.1404411   0.2787369  -0.2682912   1.3653704
  -0.4066132   0.3321950  -0.3401958   0.7914229  -0.1789237   0.2278669
   1.0229765   0.5394745  -0.3498695   0.1226823  -0.0364011   0.1667394
  -0.0608522  -1.4490995   0.0219820   1.3597981  -0.1770398   0.6942914
  -0.2163340   0.1571793   0.1309266  -0.4492255   0.3532093  -0.1048912
  -0.4173597  -0.8944945   0.7781320  -0.0886606   0.0238054  -0.1487601
   0.2715272   1.2206671  -0.6634208   0.1721716  -0.0457759   0.3167836
   0.0433943  -0.0398696  -0.0716682   0.8107949  -1.0994378  -0.0168820
  -0.3364403   0.4889749   0.8965778  -0.3704231  -0.0169399  -0.0550789
  -0.2886364  -0.6450264   0.0984033  -0.6972463   1.0204946  -0.3947220
  -0.1205800   0.0158308  -0.0338289   0.2591341  -1.7851934  -0.1890989
  -0.3443943   0.6436419   1.1607617  -0.1108711  -0.0948272   0.0129962
   0.1579161  -1.6008015  -0.0144617  -0.2003293   1.0394155   1.7273029
  -0.4412005   0.3058243  -0.1665871  -0.4458693  -0.4318376  -1.3926793
  -0.6483909  -0.2544273   0.5085646  -0.1128390   0.2934653   0.0036449
   0.7361922  -0.0854959   0.0053510  -0.4897547  -0.7205967  -0.1227702
   0.1586226  -0.0761789  -0.1581397   1.4611288   0.7442185  -0.8084848
   0.0647713  -0.6122646  -1.1617053  -0.2482880  -0.1061775  -0.2064174
   0.1937153  -0.6094722   0.7057504  -0.1051760  -0.2364972   1.3680804
  -0.0208989   0.0155941  -0.1202157  -0.8313231   0.4331524  -0.0417809
  -0.4691192   0.0860288  -0.2361764  -0.3686081  -0.0662028   0.2394789
   0.4257400   0.3381012   1.1046785  -0.7684635   0.7990435   0.2253855
  -0.2094466   0.1391131  -0.0413939  -0.5553973   0.0170978  -0.3303595
   0.1326900  -0.5163853   0.3343956   0.1998874   0.1838117   0.0552381
   1.2360770  -0.4330363  -0.5855595  -0.2408089   0.8532063   0.8135796
  -0.0126747   0.0489575   0.3757692  -1.0653285  -0.5999671   1.5573889
  -0.3684281  -0.6633440   0.5547768  -0.2389294   0.0356902  -0.1144225
   0.4155011  -0.8597528  -0.1380163   0.2803239  -0.0436746  -1.6144336
  -0.0965180  -0.0049266  -0.2153937   0.1563581  -0.0286728   0.6435623
  -0.2330684   0.9675159  -0.2377282   0.0686809   0.3625406  -0.1435142
   0.4652709  -1.2270417   0.0304546   0.2877530   0.7382863  -0.4308122
   0.1614019  -0.0153446   0.2273642  -0.2580274   0.1021968   0.9119345
  -0.6738247   0.4048244  -1.4504832   0.4681914   0.2283332   0.0298081
   0.2101660  -0.1130406   0.2490822   1.7044760  -1.0397687  -0.2091444
   0.0665832   0.2177755   0.1415632  -1.4069735   0.2291766  -0.4611275
  -0.5700964  -0.8305870   0.2708653  -0.0104412   0.1050509   0.0287837
   0.7347491  -0.6478608   0.3734913  -0.2368671  -0.6157316   0.6164052
   0.4930450  -0.1751753  -0.0930157   1.0072457  -0.4068877   0.3834558
  -1.8701442   1.3270820  -0.4530134  -0.1695606   0.2097544  -0.0852474
  -0.0683798  -0.8099147   1.5106654  -0.5097686   0.1255303   0.1878586
  -0.0162263   0.0530895  -0.0908534  -0.6071149  -1.0316994   2.1335549
   0.8780456   0.3863621   0.2613643  -0.1142390   0.3975371   0.0604305
  -0.0609547  -0.6187237   0.5060024  -0.6193468   0.1048659   0.0111929
   0.0478209  -0.1720272   0.1247036   0.2327214  -1.7845817   0.4746032
   0.8501438   0.9253809   0.6453830   0.0425261  -0.2583895  -0.0524208
   0.5739856  -1.1896060   0.3496845   2.0985897  -0.3522407  -1.3728331
   0.0244211  -0.0491365   0.1418382  -0.6256363  -0.3494635  -0.1668272
  -0.0775242   0.1816491  -0.5847286  -0.0348517   0.1583131  -0.2208622
   0.1411643   2.6765661   0.0328727   1.0255753  -1.1685672   0.9497913
  -0.1721664   0.0246724   0.0357098   0.0341259  -0.0625062   0.6331826
  -0.2945140  -0.0366007  -0.0699345  -0.3871880  -0.0609298   0.1100368
   0.1794094   1.1604341  -0.0049897   0.2457501  -1.0810293   1.1005237
  -0.1676633  -0.0622550   0.1147224  -0.2060483   0.5011992  -0.1533215
  -1.0199152  -0.3450799   1.4606105   0.0569581  -0.2816857   0.0808359
  -0.5759585  -1.0010934  -0.2316269   0.7168499  -0.1471282   0.1720050
  -0.0313697   0.0352002  -0.2805212   1.0859739   0.3635118   0.6832462
   0.5438566  -1.0868241   1.0006384   0.0794035  -0.0209702   0.0879147
  -0.7569365  -2.5830243  -0.0287740   0.5876067   0.3484853  -1.1627645
  -0.0595369   0.3268316  -0.0257247   0.6148445   0.8315379   0.0560733
  -1.0448277   0.2936498  -0.1775241   0.3032662  -0.3105727   0.3195698
  -0.8221405  -0.2743809   0.1327682  -0.4710295   0.3355751   0.0186214
   0.0140436   0.2024031  -0.1347843   1.4704591  -0.0280021   0.5291939
  -1.5946307  -0.5891575   0.1499003   0.2417143   0.0927320   0.1529665
   0.9090691   1.6669252   0.2698467  -0.7948201   0.0578919   0.1147884
   0.1612024   0.0520913   0.0967530   0.2235336   0.5435793  -0.2238363
   0.2321386   0.2597075   0.9865322   0.2605082  -0.1274998  -0.1402382
   1.4120871   0.1470459   0.1669133   0.0539163  -0.2031108   0.7798537
  -0.2560051  -0.2172229  -0.0374233   1.6883142   0.8115198   2.2533848
  -0.3837186   0.5168518   1.4302952   0.1443899  -0.2797133   0.0097503
  -0.3520711   1.6546723  -0.8842674   0.0586986  -0.0781123  -1.0583624
  -0.1144858  -0.0825353  -0.0910176   0.0997045  -0.2351699   1.1841247
   0.9924926  -0.0946064   0.8200206  -0.1783865   0.1397319  -0.0096540
  -1.2404752  -0.4897587  -0.5273941  -0.8193098  -0.5490155  -0.0129820
  -0.1334352  -0.1948265  -0.1228439  -1.4551342   0.1140459   0.7715109
   0.2397867   0.7319409   0.9948313   0.2106086   0.2381277  -0.1374857
   0.5470691   0.0725908  -0.2625490  -0.1591965   0.2512095  -0.5715259
   0.2294984  -0.1280996  -0.0622897  -0.0464026   0.7406268  -0.7373286
   0.3680739  -1.1042963  -0.2586703   0.6221033   0.1304926   0.1037952
   0.8086476  -0.6967273   0.6135572  -0.9214082   0.3508659   0.2401318
   0.0312513   0.1502545   0.0873636   0.2204178   0.4495417   0.4620861
   1.1605066  -1.8549880  -0.4023452  -0.2236818   0.0997753   0.0369570
  -1.2874824  -0.9814402  -0.2841927  -1.1416913   0.2912458   1.1921498
   0.3503164   0.0913564   0.1081910  -0.5749916  -0.5476145  -0.0044071
   0.3105691   1.1306059  -0.9422290  -0.0556222  -0.1769208  -0.0698585
  -0.7362081   0.5876336   0.5676781   0.0123304   0.6498932   1.0098943
  -0.0030056   0.0291001   0.2614338   0.5945598   0.6838068   0.7870864
  -0.3761741  -0.6715792   0.1270923   0.1299976   0.0308057  -0.0769563
   1.0642172  -0.1531203   0.0104858   0.5299048  -0.1566242   0.5833557
   0.1346174   0.0973249   0.0793327   0.1479755  -0.1977988  -0.5738961
   0.0424909  -0.4582237   0.0018074   0.0989164   0.0638131   0.0098469
   0.4823911   0.0039257  -0.9437484  -0.9549422  -0.5846778   0.4688763
   0.1441411   0.0069178  -0.1735321   0.4705789   0.4427930  -0.1475944
   0.9111818  -0.4901706  -0.9525344  -0.0378278   0.1471864   0.3607027
   1.4256448   0.0192695  -1.1024030  -0.3807029   0.1782660   0.5013757
  -0.1481219  -0.1651250   0.4024466  -0.3939725   0.5766488  -1.1173294
   1.7470324   0.5848104   0.4688934   0.1722901  -0.0369178   0.0524397
  -1.1564665   0.1574447  -0.9005558   0.3983056   0.5849196   0.2406500
   0.0045132   0.0159358  -0.2047244   0.8438560  -1.1805331   0.4902185
   0.2371418   0.2402691  -0.1308907   0.3402280   0.1877719   0.1369088
  -0.6328117   0.7114075   0.6377742  -1.3686837  -0.8643178  -0.6422021
  -0.0240542   0.0699501  -0.1919172  -0.1388380  -0.5233170   0.1370414
  -0.1194861   0.8481904   0.6291991  -0.0006707  -0.2226403   0.0859821
  -0.7824860  -0.3363371   1.4795941  -0.6498084  -0.0199253  -0.9383406
  -0.2984520  -0.1513811   0.1085873  -0.0184494  -0.4196029  -0.9652909
   0.4157195  -1.9278899  -0.1318955  -0.1641758  -0.0404452   0.0594719
   0.6068479  -0.4454167   0.0087139  -0.1758899   0.8385569  -0.1873663
  -0.1396576  -0.0734127   0.0447604  -0.8077807   0.4438314  -0.7095921
   0.3482611  -0.4062309   0.1805848   0.1145695   0.1381748  -0.3485827
  -1.5865136  -0.7330009  -1.4437755   2.3436558   0.4880118   1.1570082
  -0.0418172   0.0610236   0.1606216   0.9393032  -0.2202832   1.9409735
  -0.1559200   0.1610740   0.2041231   0.2889420   0.0773333  -0.1087466
   0.9420286   0.0390224  -0.8422043  -0.3401634   0.4195958  -0.8691225
  -0.2576363  -0.3825208   0.0709261   0.3893428  -0.4081727  -0.5566177
   1.2639693  -0.0062564  -0.0912137  -0.0986270   0.0361141   0.0793774
  -0.5591874   0.8434178   0.3872310   1.0734649   1.4623097  -0.1090597
   0.0285992   0.3647605  -0.4511103   0.1186691  -1.4241408  -1.2947286
   0.3072897  -0.2430929   1.4861914   0.2618202   0.2177092  -0.3521364
  -0.9509740   0.1366310  -0.3253936  -0.0328791   0.0321007   0.6897388
  -0.0221801  -0.4266458  -0.1047381  -0.1164277   0.3435304  -0.3642057
  -0.3604361   1.2267303  -1.3938447   0.1372982   0.1026377  -0.1579317
   1.2721144   1.6980728  -1.1004738   0.8268327   0.2345413  -1.6738938
  -0.0005628  -0.0102457  -0.3782206   0.1531068  -0.6394510  -1.3346238
  -0.0057632  -0.7899529  -1.1528256  -0.1740702  -0.1431700  -0.1021262
   0.1822000   0.2711526  -0.0253587  -0.9064021  -0.0023151   0.1052579
  -0.0084104  -0.0687129  -0.1347002   0.6816326   1.2799336   0.9315709
  -1.1461390   0.5811660  -1.0280218   0.3469646  -0.2686683   0.0519202
   0.1074079  -0.5967787   0.0345133   1.7996864   0.3456927  -0.1715027
  -0.0185846  -0.0063703  -0.0978564  -1.4722583  -0.3490339   1.0790981
  -0.5080425   1.2040280   0.6432161  -0.2536240  -0.1046425   0.3095460
  -0.5660661  -1.1693146   0.7859730   1.1357404  -0.4022903   0.7192722
   0.3055979  -0.2991417  -0.0828739  -0.5311334   0.0130098   1.2978495
   0.1283346   0.2390863   0.0631894   0.1310765   0.1541913   0.0342208
   0.9877681   0.1857713   1.3246398  -0.0050216  -0.4950748  -0.6646802
  -0.0156901  -0.2771596   0.0832914   0.4779389  -0.3547659  -1.2802373
   0.4462593   1.5725180   0.9006309  -0.1452869  -0.0018546  -0.2955436
  -0.1934524   0.4600439  -0.3968907   0.5268038  -1.8931491   1.9464756
  -0.0258933  -0.2361738  -0.1784694  -1.2229341  -0.4006892  -0.4672839
   0.0994880   0.6579806   0.1397839  -0.2105536  -0.0877826   0.2079513
  -0.1205018   0.2955840  -0.2523561  -1.7007250   0.5214450  -0.0449166
   0.5517490   0.0759692   0.2502659  -0.9634079   0.1827081   1.0485824
   1.5903034   0.4668000   1.7740604   0.1466664   0.0873871  -0.1284758
  -0.6834938  -1.1589144   0.8000360  -1.6195446   0.1042738  -0.1427967
   0.1884889   0.1650946  -0.1474686   0.3394865   0.9095412   0.4045873
  -1.5165987   0.6646372   0.2916228   0.0983954   0.1030713   0.1742820
  -1.4053442   1.2690939  -0.9325547  -0.2809787   0.2527949  -0.2789593
  -0.0020265   0.1501849  -0.1915277   0.7981012  -0.9759368   0.0758063
  -0.1899669   0.5823856  -0.2447513  -0.0439465   0.0976069   0.1668097
  -0.3495077   0.4067511  -0.9328459   0.6426451  -0.7239236   0.1532744
  -0.0767212  -0.0510929  -0.1559116  -0.8735667   0.0034517  -1.0266339
   0.0051325  -0.3263186  -0.6288955   0.1112847  -0.0105251   0.1137465
  -0.1892318  -0.7165844   0.0917343   0.5379616   1.2240260   0.1517665
  -0.0616422   0.0941663   0.0293655  -0.4786273  -0.4249684   0.9837411
   0.0232922   1.1650372  -0.0599893  -0.2467068   0.3251801  -0.1853911
  -1.2140543  -0.1055374   0.7657703  -0.4243217  -0.4347841   1.5134989
  -0.1015056  -0.1697659   0.2546825  -0.7968170  -0.4055502   0.2782931
   2.0861213  -0.2057329   0.7293162   0.0456219  -0.2323418   0.1384156
  -0.5879046   0.2380369  -0.5180869   0.0651124   0.3986938   1.7676812
   0.0380795   0.2550787  -0.0085413   0.0841991  -1.2901222  -1.0405653
   0.1473599   0.0059392   0.5324011  -0.2901109  -0.2043607   0.3249656
  -0.4325154   1.5496004   0.7195995  -0.3332840  -0.5092627   0.5598833
  -0.0353821   0.2555790  -0.1616444  -1.0877440  -0.5498376  -0.1925987
  -0.8730710   0.5440619   0.1104046   0.0198415  -0.1725951  -0.2500550
   0.2739983   0.5431960  -0.2707903   0.8263834  -0.6070901   0.9089077
   0.0477910   0.0741012  -0.0417537   0.2274259   0.6710293   0.5220595
  -0.3439177   0.1320910  -0.6162581  -0.2211916   0.0904543   0.0692063
  -0.1392912   0.3173665  -0.6551384   1.4595854   0.2314195  -0.4004810
   0.0611220  -0.1397432   0.1809276  -0.6145872   0.3923054   0.1096399
   0.3214005   0.1896764   0.2610812  -0.0233074   0.1534667   0.0268182
   0.3362077  -0.0062771   0.9199882   0.7004902   0.8084363   0.1114268
  -0.0254966   0.1845769   0.0049125  -0.1536743  -0.4548893  -0.0538836
   0.7627288   0.3435331   0.2630663  -0.0402442  -0.1795439  -0.2240056
   0.0213548  -0.0842551   0.7319046   0.3355613  -0.5439543   0.2442743
  -0.2194278  -0.1329725  -0.1385155   0.3349463  -0.6042484   0.5373745
   0.1585502  -0.4468243  -0.6413500   0.1276107   0.2453371  -0.0546847
  -0.4768721  -0.5917253  -0.2121028   1.2747010  -0.5658382  -0.5863475
  -0.1152442   0.2929689  -0.0862961   0.5396659  -0.0224134  -0.5711907
  -0.3813544   1.2681015  -0.0972441  -0.1324356  -0.2167558   0.0252834
   0.0585648   0.0442442   1.9059538  -0.8032433   0.0998794   0.3378944
  -0.0716385   0.3549201   0.1721323   0.2646675  -0.6097855   0.4849768
  -0.5893444  -0.0245431   0.3586982  -0.1196885   0.0351988  -0.0179866
  -0.2039090  -0.0266618   1.2157575   0.4456113   0.2762416   0.8687930
   0.2318991   0.1030777  -0.3527907   0.3762984   0.1463229   0.9574225
   0.2619488  -0.5815079   0.7401330  -0.0492210  -0.0770183  -0.0909692
  -1.1376235  -0.1115669  -1.1411047  -0.2238665  -0.4755993   0.7110002
   0.3810199  -0.3408953  -0.1002882  -1.4196826  -1.4142669   1.4171308
  -0.0271582   1.7337327  -0.1819849  -0.1711729   0.0321155  -0.2893217
   0.7221646  -0.2097340   0.4213945  -0.9854214   0.5777860   0.1474861
  -0.2312114   0.1385959   0.1400071  -0.6685533  -0.2749589   0.4729990
  -0.5786102   0.9819083  -1.4613688   0.0677191  -0.0493761   0.1085323
   0.3309511  -0.4261160  -0.2255262  -1.5325843   1.1681700  -0.1296996
  -0.0146644  -0.0090076  -0.1175974   0.3322047  -0.8480791   0.1378009
   0.8544545   1.1114120   0.8537230  -0.3186904  -0.1531977  -0.0161382
  -1.8488051  -0.1618267   0.3169380  -0.6197667  -0.6475134  -0.2982942
  -0.1150843  -0.0439231  -0.0169669  -0.7258573  -1.4426719   0.2037404
   0.9711081   1.4258940   0.5624093   0.2986451  -0.0826897  -0.0200872
   0.3436799   0.9044632   0.7187197   0.2724512   0.5173934  -0.2408575
   0.2081436  -0.2189446   0.0444675  -0.0498807  -0.8862520   1.5771848
  -0.0386616   0.4948614   0.2064801  -0.4075834   0.0087761  -0.0523788
  -1.4818077   0.6364881   0.4263399   0.5510647   0.6501930  -0.3895798
   0.0653208   0.1923151  -0.1906774  -0.7164294  -0.5018503   1.2205698
   0.1919089  -1.3102691   1.1731763   0.0487585  -0.1789503   0.0133255
   0.1954863   0.0319563  -1.3966476   0.7324062  -0.7856923  -0.3519791
   0.1195930   0.0639319   0.0314580   0.3012415   0.9017175  -0.7173058
   0.4485075   0.0088039   0.7830300   0.2666874   0.0147557  -0.4718947
  -1.0644885  -1.0271889   0.0765340  -0.1114954  -0.6490955  -0.3472029
  -0.2486585   0.2006482   0.1364419   0.2368171  -0.4996119   0.7043353
  -0.2575400  -0.4835894   0.6861692  -0.2362894  -0.0309002  -0.0025761
  -0.1013707   0.4760554  -0.4952432  -1.5121766  -0.0173556  -1.2368536
  -0.1632979   0.0987927  -0.3751000   0.4859373   0.6376393  -0.1861521
  -0.0055224   0.3236849   0.7571173   0.3905427  -0.2895834  -0.4141819
  -0.0954648  -0.7063972   1.0392507   1.1378136  -0.8037797  -0.4788696
   0.0630315  -0.0314833   0.3005612   0.0596520   0.1957327  -0.2203758
  -1.8376131   0.1273142  -0.2538319   0.2284350  -0.0379231   0.1393105
   0.5685580   0.9734762   0.2688347   0.2552838   0.1804944  -0.4889753
   0.0960896   0.2290777  -0.1634171  -0.0136106   0.3644811   0.1567370
   0.1349411   1.0034524  -0.6604443  -0.0194361  -0.0705072   0.1583629
   0.2920209  -0.6273630   0.2071605  -0.0554075   0.6663892  -0.4574667
  -0.0964700   0.0194189   0.0074703   0.3181562  -0.3545598  -0.4987561
   0.7701987  -0.6259130  -0.2014678  -0.2490554   0.0850605  -0.1531535
  -0.0228747   1.2933345  -0.6378621   0.2946679   1.1811266  -0.5793108
  -0.1780442   0.2400962  -0.3043298  -0.2231302  -0.4611013   1.0734922
  -1.3677146  -0.4618188   0.3221627  -0.0198241  -0.2256655   0.1239172
   0.0227973   0.4117475   1.4700607  -0.6848831  -0.4373592  -0.0563852
  -0.1180880  -0.1671627  -0.1009257   0.7107462  -0.5722364  -0.9163513
   0.2921261   0.2113605   0.7419912  -0.2466703   0.1163701  -0.2191458
   1.0350159  -0.0512593  -1.4883862  -0.7201042  -0.3061829  -0.5847806
   0.1204830  -0.2698750   0.1808200  -0.2639146   1.1626824  -0.4606648
  -1.1586051   1.4323043  -0.7945210   0.2021156   0.0013838  -0.0708864
  -0.0344670   0.0495919   0.5734765  -0.1743626   1.4659947  -1.1551523
   0.1071817  -0.0496445  -0.1358231   0.9583857   0.6755980  -0.8437016
  -0.1052642  -0.3540635  -0.4479659  -0.0985267  -0.0926014  -0.0447043
   0.1701412   1.4304773   0.8379907   0.1321267  -0.5146985  -0.3763724
   0.0952750   0.2778842   0.0746515  -1.4483343  -0.2476901  -0.0842444
  -0.1739434  -0.4522267  -0.2493370  -0.1406195  -0.1969989   0.1630341
  -1.0407184   0.1674717  -0.6928510  -0.7848795   0.4573975  -0.0430093
  -0.1523717  -0.1206348  -0.0687026   0.3515068  -0.1352675  -1.1907395
  -1.0028033  -1.3462377  -1.7215426  -0.0668820   0.0391630  -0.1701872
  -1.2771425  -0.7332301  -0.5366079   0.4010912   0.9571175  -0.5204633
  -0.3302739  -0.0081286   0.0519344  -1.0390592  -1.0221739  -0.2241588
  -0.6080340  -0.4101976   0.5744791  -0.0576060   0.1351570   0.3903466
   0.6044415  -0.2118376  -0.5668965   0.6810271  -0.1312161   0.2483676
  -0.3584121   0.2478522   0.2007390   1.2127936  -0.7741687   0.8843930
  -1.3666745   0.6243429   1.5550581  -0.1615877  -0.0402699  -0.2013229
   0.6338042   1.3956579  -1.1292129  -1.0965067  -0.0757784  -0.4847182
   0.0755981  -0.1819755  -0.1273104  -0.8711845  -0.8303093  -0.2337575
   0.0570773   0.3550149  -0.0479623  -0.2893852  -0.2850516  -0.1512979
  -1.0656210   0.3810120  -0.2021469   0.8386451   0.8214636   0.6099133
  -0.0626528   0.0180919   0.2044313   0.4212284   0.0572463   0.1198739
   0.3305231   0.3465804   0.7253631   0.1863207   0.1632887   0.1324002
  -0.2752221  -0.1059551  -0.1709826  -0.1254038  -1.1209198  -0.3314125
   0.2810410   0.0811134  -0.4509559  -0.6147760   0.8288705   0.2682129
   0.8122253   0.9296333  -0.8567680  -0.2832125   0.3303528   0.3269943
  -0.4111412   0.1233557  -1.0512269  -2.2324400  -0.0666249  -0.6789951
   0.0637008  -0.1100189  -0.3964361  -0.5490704  -0.6219320   0.5600962
   1.1450343  -0.5684053   1.5684578  -0.1564966   0.0358651   0.2084162
   0.8101165  -0.0444747  -1.7396140   1.4688706   1.3271567  -0.0594042
   0.1027025   0.1539366   0.1230154   0.9636943  -1.7663491  -0.2298012
   0.1195427  -0.2156324   1.1197327   0.0529540   0.0328041   0.0507998
   0.3892721  -0.5291035   0.7361285  -1.4826357   0.3155567  -1.8136743
   0.2556142  -0.0185931   0.2894058  -0.3164708  -1.2386135  -1.3306091
  -0.2476578  -1.4804955  -0.8211344  -0.3513154   0.2671307   0.0890312
   0.1241304  -0.7151709  -0.0634692   0.3096868  -0.4769143  -0.2344582
  -0.2085187  -0.0365581  -0.0898007   0.3154970  -0.5053942  -0.4474291
   0.8374003  -0.3859869   0.9336649  -0.1577166  -0.0042412   0.1475210
  -0.0626480  -0.6849425  -0.3030017   1.3600303   0.9924034  -0.5214180
  -0.1289578  -0.1000460   0.1475357   0.1553059   0.2332329   0.0432446
   0.0168302  -0.0716115  -0.6286457   0.1515602  -0.0376657  -0.2502094
  -0.6738438  -0.1361287   0.2623503  -0.0923019  -0.8473421   0.3896130
   0.0885836   0.2790281   0.3814918   0.3487817  -1.5796908  -0.6615295
  -0.5680512   0.7122437  -0.9943320   0.0996268  -0.1785801   0.4409330
   0.1479700   0.1118967  -1.2467644  -0.9655561   1.8677789   0.9536015
   0.1182193  -0.0905308  -0.0622420   0.3466716  -0.2962936  -0.3552379
  -0.3277321  -0.0881649   1.2427737   0.0474643   0.0556176  -0.0538991
   0.4765371  -0.3618228  -0.3745738  -0.9298010   0.8041853   1.0085189
  -0.2905852  -0.2665482  -0.2717260   1.2105125  -1.2443409   0.1447501
  -0.1463361  -0.8147001   0.9800786   0.0785931  -0.3465281  -0.1390935
   0.1064690  -0.5936421  -1.1627926  -1.0949529   0.3844041   0.7782785
  -0.0966570  -0.2955513   0.0959888   0.4028455  -0.4691048  -0.0334256
   0.0697733   1.5133126   0.5217714  -0.3424418   0.0425639  -0.1196309
   0.3213579   0.0520368   0.1555519  -0.0403889   0.9247010  -0.4980147
  -0.2627401   0.2068639   0.0907004   0.3604767  -0.9336142  -0.4685425
  -0.6866463   0.8437913   0.9885200   0.3733688  -0.1589248   0.2804529
   1.4069635  -0.9036130  -0.5645285  -0.1430021  -0.0026574  -1.6573194
   0.1275923  -0.0709051  -0.1213286   0.6005263  -0.3461673   0.3032521
   0.9823651  -1.5270625   0.3874299   0.3119053  -0.2853196  -0.0095493
  -0.9121935   0.4670763   0.4555539  -0.3039539   0.6783920  -0.4603864
  -0.2279805  -0.3127665   0.1264904  -0.3596155   0.7534288   0.4416808
   0.2682458   0.3572364  -1.6159970  -0.0443852  -0.0744468  -0.0820173
   0.5001763  -0.4095361   0.8265439  -0.8379639   0.0730790  -0.5434464
  -0.2226846  -0.0101641  -0.1998173  -1.0851773   0.1054941   1.2626505
  -1.0924072  -0.1782669   0.4145645  -0.0203356  -0.1158648   0.0253790
  -0.5474327   0.5515633  -0.0135197  -0.0580556  -0.8143666   0.3196287
  -0.2906790   0.0989761  -0.2475896  -0.2414768   0.7041855  -0.8003042
  -1.2857513  -0.6248596   0.4415189   0.1247849  -0.1455711   0.0566566
  -0.4176348  -1.5394595   0.0493083   1.0891941   1.6577237  -0.5680530
  -0.2728699  -0.0231671   0.0479798   0.5714878  -0.2757148  -0.7183694
   0.1207653   0.0791539   0.0186122  -0.3934579   0.0360707  -0.4638010
   0.8186557  -0.3327425  -1.1060300   0.5175548  -0.6141620  -0.1528912
   0.2634098   0.0907745   0.0959682  -0.3793731  -0.0607226  -1.2781278
  -2.2717881   1.6281137  -1.0134554   0.0750448   0.1201974   0.1458867
  -0.7019882   0.0030227  -0.6524113   0.6933189   1.1396476  -1.6800051
   0.0264088   0.3278043  -0.1844738  -0.8007490  -0.1343679  -0.0878602
   0.0667321  -0.1823891  -0.4165027  -0.0059377   0.2347856   0.0034600
  -1.1627142  -0.1296951  -0.4440210   0.7610982   1.5292654   0.1903813
   0.5142172   0.4945092  -0.3681493   1.0484364   0.9278143  -1.0177265
   0.2818024   0.1287022   0.7963162   0.3238470  -0.0914190  -0.0380911
  -0.3825376   0.8676986  -0.9218871   0.3385757  -1.3773280   0.5806999
  -0.1613797   0.2220980  -0.1075583   0.7641653  -0.4958898   0.8653886
  -0.1905102  -1.8139913  -0.5986270  -0.1300701   0.0236017  -0.1103390
  -0.3543569   0.7984033  -1.7055324  -0.5395895  -1.3069453  -0.6126091
   0.2425560  -0.0287757   0.2501930  -1.4129027  -0.6000012   0.0081857
   0.3940578  -2.2647233   0.2189735   0.1532787  -0.0540697   0.0069012
   0.6951165  -0.3076573   0.6617673   0.5081023  -0.0858222   0.9198534
  -0.1400571   0.1356598  -0.1943912   1.5251198  -0.5490912   0.4917087
  -0.4274952  -0.5125633  -0.8082025   0.0866516  -0.0255989  -0.1406146
  -1.5944421   1.1165652   1.7262188  -0.9567817  -0.3783256  -1.2222664
   0.1934227   0.2348153   0.1207948   0.8327363   0.4316804   1.4805009
   0.0728992   0.8869068   0.8117166   0.2161685  -0.1640983   0.0013844
   0.3060712  -0.3290443   0.0680443   0.1754840  -0.0586766  -0.8823062
   0.1297351  -0.0284373  -0.2085004  -0.2232915  -0.4081661   0.8191164
   1.0120780  -1.0423602  -0.3217785  -0.0178342   0.2414680   0.1364056
  -0.7805504   0.2408829   0.4806090   0.4786236   0.5630577  -1.3694735
  -0.2741930  -0.0342914   0.1336789  -0.4646885  -0.1155243   0.7777735
  -0.4394931  -0.2871577   0.3479592  -0.0180264  -0.1332050  -0.1224960
  -0.4277861  -0.8510180   0.4120953  -0.2123221  -0.0145099  -0.0690752
   0.0278552  -0.0487765  -0.1436886  -0.2366832  -0.0916328   1.0838351
   0.3695588   0.0125884   0.4080894   0.1603304  -0.0097372  -0.4011236
  -1.1729542  -0.1329074  -1.0828757  -0.3741705  -0.2429826  -0.6126149
  -0.2425107  -0.2040858  -0.0849984   0.1374867   1.1475337  -0.1449348
   0.0202297   0.6206472   0.2636740   0.2518034   0.3455967  -0.3754891
  -0.5342339  -1.7320925  -0.4935167   0.9193546   1.4189080  -0.7524449
   0.0569928  -0.0050837   0.3913696  -0.4401334   1.0938625   1.1566951
   0.4440956   0.5872950   0.5146707   0.4002808  -0.2615880  -0.2467175
   1.7556075   1.1446706  -0.9250475   0.9569963   0.1184613  -0.1307542
   0.1548375  -0.1516721   0.3842934  -0.8696048   1.1198689   0.9436197
  -0.2098696  -0.3215592   0.3184551  -0.1030897   0.0557802  -0.0410968
  -0.3711030  -1.1117833   0.0638234   2.1461978  -0.8780233   0.1594133
  -0.0059738   0.0114234   0.2172943   0.3426330   0.0988475   0.2667460
   0.9898480   1.1513795   0.4826058  -0.2687592   0.0798971  -0.0818156
   0.5092314   1.2099321   0.9703208  -0.6544569  -0.6494578   0.6325835
   0.1074886   0.1197836  -0.2947802   1.8030020  -0.0352152  -0.3124991
   1.3263896   0.4978060   0.5015652   0.0048991   0.1606762   0.0557143
  -1.2080828  -0.1401033  -1.8480078   0.8265869   0.5207259  -0.9704888
  -0.0133647   0.2625500   0.1912720   0.3070464  -0.6612299  -0.8673480
  -0.2515937   0.6129551   0.1185001  -0.3727635   0.1001406  -0.0260002
  -0.1162627   0.8581628  -0.0177639   0.4129113  -0.8833837   0.2514611
  -0.0137439  -0.2463174   0.0510428   0.8168694   0.5182416   0.0377079
  -0.2921857   0.9060340  -1.1989141  -0.3335302  -0.0187012  -0.1370368
   0.4163789   0.9344460  -1.1884069  -0.3482428   0.1329920  -0.1053375
  -0.2111492   0.1015559  -0.0508179   0.1749607  -1.2357516   0.0236063
  -1.1165360   1.6992669  -0.4831731  -0.1148176   0.0197363  -0.0502894
  -1.2182957  -0.2503086   0.5775917  -0.4005777  -0.2575911   0.0119151
   0.2103767  -0.0475993  -0.0366885  -0.3418515  -0.0760745  -0.5763113
  -0.1432261   0.2098945  -0.7668217   0.3662698  -0.4031481   0.0587400
   1.1651694   0.6149407  -0.2463424  -0.5239862  -2.0024645  -0.4235363
  -0.0650650   0.1411379   0.2583312  -0.4338627   1.0334477  -0.1046295
   0.9529719  -0.1339533  -0.6225941  -0.0721565  -0.1668520  -0.1273194
   0.0271603   1.1357263   0.2740766   0.4321114   0.0013963  -1.5047894
  -0.0829089  -0.4004502  -0.2794836   0.4627439   0.5682390  -0.7136187
  -0.2307636   0.2572383  -0.3354323  -0.1019364  -0.2271473  -0.1553559
  -0.4260429  -0.6999713  -0.0064625   1.1298751  -0.2149605  -0.1331143
   0.1578957   0.1231637  -0.3695839   0.1760106   0.0455115   0.5635422
  -0.7365730  -1.4997399   0.3596222  -0.1223470  -0.1491982  -0.1021601
  -0.1483482  -1.0633948   1.2337339   0.9827921  -0.1235611   1.3325325
  -0.2019048  -0.3435825  -0.0168294   1.1325990  -0.9591796   0.1700960
  -0.2807950  -0.3359763   0.6192285  -0.2091242  -0.0953214  -0.2336850
  -0.2824947  -0.8640525   1.4488069   0.6596697   0.8648432   0.1734159
  -0.0730026  -0.2644916  -0.2622620  -0.7666088   1.4892927   0.4622122
  -0.7010400  -0.5205714  -0.3138225  -0.0839066   0.2952963   0.0710195
  -1.1097070   0.2783563  -0.0206702  -0.1214536  -0.4586785  -0.2457017
  -0.5305253   0.0158770  -0.0062127   0.1147985  -0.5265127  -0.8237243
   0.6728213   0.8191343   1.6578429   0.0885297  -0.2725630  -0.1313134
   0.0918722  -0.3281928  -0.5897920   1.1979271  -0.3002949   0.6561825
  -0.1849493   0.4771273   0.2271969  -0.0313272  -0.2630826  -0.7222213
   1.0043925  -0.6749772  -1.2594343   0.0197218   0.3007455  -0.0909645
  -0.2643132   0.1890933   0.8990052  -0.5870149   1.1615894  -0.4810179
   0.0926067  -0.0945239   0.3727589  -0.7006542  -0.5592287  -0.5932969
   0.9380375   0.0574284   0.0523568  -0.0521996  -0.5159815   0.0359957
  -0.4959735  -0.7641836   0.1808635  -0.5326017   0.4930103   1.0101495
  -0.1231994   0.1400935  -0.1157417  -0.7280881  -0.4331366  -0.5532520
   0.8543493   0.0672656  -0.6715357  -0.0794548   0.2209562  -0.2082711
  -0.5162133  -1.5421016   0.3720508   0.6508348   0.2447545   0.8112814
  -0.0416016   0.2419434   0.1007899  -1.1975249   0.1054970  -1.0119592
   0.1843970   0.4549932  -0.3259103  -0.0678615  -0.0736042  -0.2281810
  -0.3814301  -0.9517167  -0.3824357   0.5141425  -0.1472315  -0.7588573
  -0.1455126  -0.1369020  -0.0548868  -0.6621437   0.2529199  -0.9060246
   1.0800421  -0.9248260   1.9153563  -0.0714059   0.1151797  -0.2986303
   0.3035368   0.0128221   0.8100615   0.9296228   0.2578556   0.1629082
  -0.1562382   0.3057013   0.1440091  -0.9989526   0.9198090   0.4633214
  -0.5754253   1.2622417   0.7387185   0.1415420  -0.0718552  -0.2407808
   0.0527312  -0.5073127   0.0179505   0.8550971   0.8827496   1.6437612
   0.1399386  -0.1049285  -0.0936553   1.8067051   0.7481371  -1.2842479
   0.1235007   1.2883612   0.1599815   0.2092267  -0.1419012  -0.1811815
   0.5856971  -0.5643573  -1.4464656  -1.6671280  -0.7557642   0.4500125
  -0.0042686   0.2229668   0.0641812  -0.2406492   0.3100535   1.0602716
   0.9721959   1.5897222   1.1297029   0.1901783  -0.0948132  -0.0918395
  -0.5187371  -0.6727753   0.1029540  -0.8727486  -0.3658221   0.7594008
  -0.0698746  -0.0161579   0.1688285   0.7317807   0.1397183   0.3179076
  -0.0145684  -0.4265012   0.0818088   0.2554635  -0.1141252   0.0089860
   0.1134280   1.4710093  -0.2724802   0.1332313  -0.7741256   0.4651297
   0.0813873  -0.2478223  -0.2597310   0.7632301   1.4323843   0.0033153
   0.8583095   1.6490297   1.2973118   0.0413391  -0.1795906  -0.2007557
  -0.1882574  -0.9262501  -1.3213278  -0.9061282  -1.6685320  -1.1241529
   0.0920537   0.1046685   0.5802723  -0.2991632  -0.3830453   1.1601031
   0.2907056  -0.0647644   0.1657578  -0.0165855  -0.2119882   0.0767240
  -0.8465267  -0.0290012  -0.2509430   0.4986151   0.5941842  -1.1960909
   0.1034029   0.2128129  -0.0955595  -0.4285883  -1.1769737   0.1334284
  -0.7197261   1.4410769   0.9381111  -0.0258715   0.6158839   0.0751849
  -0.2211858  -0.2891680   0.1227990   0.7956315   0.2504937   0.8439744
  -0.0367631   0.0050353   0.1008071   0.5619372  -2.1064873   0.3155903
  -0.4749991   0.0225510  -0.3254113  -0.4290461  -0.0691573   0.1860414
  -1.3135327   0.3849239   0.2051240   1.5368427   0.2541263   2.7170985
   0.0729794  -0.1957307  -0.0035757   0.3507786  -0.2796283   0.0762714
  -0.2000452  -0.7658527  -0.0158175   0.0089641  -0.0799423  -0.2164993
  -0.3924232   0.9591598   0.1472803   0.5445850   0.8272749   0.0408903
   0.4448573  -0.1647589  -0.1631933  -0.5516154   0.0274931   0.1475737
   1.0130650   0.8551620   0.0383696   0.0820024  -0.3507970  -0.3370717
  -0.2907380   0.2854406   0.3819657  -0.3469022  -0.1408783   1.2860308
   0.2939219   0.2357061  -0.1632018   0.7116364  -0.3689431   0.0042866
  -0.5091964   0.1813171   0.4635835   0.4518237  -0.0280423   0.2503865
   0.0319785   0.3738034  -0.0690074   0.5861847  -0.5451050   0.0306212
  -0.3869525   0.3091100   0.1491093  -0.9207726   0.1549391   1.4452823
   0.3645649   0.0022217  -0.7567331   0.0027383   0.0535240  -0.1045718
  -0.3175318  -0.7621862   0.8516127   0.0576619  -0.0427337  -0.3119237
   0.1418898  -0.0905336  -0.4968426  -0.2833701   0.0523693   0.5513042
   0.0793848   1.3603338   0.0476246   0.2332605   0.1667826  -0.1521066
   0.4475364   1.2302061   0.8307019  -0.2530684   0.2723991   0.7000747
  -0.0549341  -0.1765213  -0.0418009  -0.0387397   0.5878791   0.2551979
   0.8831941   2.1003509   0.6011125  -0.0905786  -0.1818556   0.0560955
   0.3975947   0.8171546   0.0525539  -0.1449538   1.8511822  -0.0508956
   0.1277823  -0.0478703  -0.2210081  -0.4536963  -0.3978396   0.0255586
   1.4267036  -2.2594416  -1.0678260  -0.0154004   0.0489072  -0.1571649
  -0.1451148  -0.0619414  -0.7684857  -0.8536781  -0.6245509   0.1691446
  -0.0685531  -0.1630162   0.3649246  -0.6906886  -0.5982916  -1.9058189
   0.8699974   0.5174732   0.3262478   0.2735742  -0.0131838  -0.1720147
   1.0811342  -0.5054930  -1.0960737  -1.2218721  -1.1035330  -1.2869306
   0.0137641   0.1574451   0.0615228   0.9498960  -0.4235571   1.1614614
   0.5461417   1.2125837  -1.3369838  -0.2953719   0.0411553   0.1575044
  -1.1046081   0.8307583  -0.3317460  -0.2498864  -0.0999563   1.9285306
  -0.2498523   0.0100591   0.1605051   0.4743671  -1.1301312   0.9694161
  -1.3138248   0.4652387   0.1369353  -0.1787396   0.3603261   0.1086655
   0.5697794  -0.0217400   0.0672723   0.1655184   0.5024107   0.1696163
   0.0584467  -0.0176196   0.0509416  -1.1203427   0.0932964   1.2520614
  -0.2548970   0.1926397   2.0008152   0.1867951   0.0651783   0.0154724
  -1.7827146   0.8555171   1.0367224  -1.0623355   0.1853374  -0.8062228
  -0.1432776  -0.3710494  -0.0962387   0.0190768   0.5014254   0.0249506
  -0.5807123  -0.9271907  -1.0460047  -0.1722560   0.1712485  -0.3217335
   0.8097589   0.0416802   0.3293827   0.3561165  -0.3894394   0.5698577
   0.0655289  -0.1419278  -0.3243332  -0.0835096  -0.5901830   0.9164118
  -0.6297781   0.9686494   0.5663171   0.0641950  -0.1419791   0.2565414
   0.5002940  -0.3371244  -1.2427173  -0.2733242  -1.4726459  -1.6180066
   0.0838347   0.0657890   0.3086203  -0.9117589   0.4885006  -0.4471776
  -0.6312736  -0.6718192   1.5367970   0.0361439   0.0856000   0.0370227
   0.5032836   0.1498385  -0.3893979  -0.0455206  -0.1447538   0.3854607
   0.1165223  -0.1393418   0.1219639  -1.9326272  -0.0549944   0.8109205
  -0.1658351   0.2196570   0.1768187  -0.2450076   0.2177135  -0.0576259
  -0.4897863  -1.7647865  -0.3175962   0.1685022  -0.0431219  -1.2369326
   0.1234694  -0.2006655   0.3370456  -0.9854691  -1.0960228   0.9913489
  -0.0652034  -0.8609342  -0.3237234   0.2860569   0.1863150   0.0169501
   0.2233783   1.5773628  -0.1898517  -0.6611795  -0.0053970  -1.1674131
   0.2006887  -0.2001435   0.2155047  -1.0798703   1.4150048   0.9307715
  -1.5501622   0.1377692   0.5197963   0.0609175  -0.3917623   0.1434952
  -2.0678945  -0.6601890  -0.9640724   0.2143950   1.0052989  -1.2212768
   0.1614045   0.0443199   0.2310447   1.2829448  -0.7575194  -0.2941643
  -0.0911536   0.5894782  -0.0813090   0.0975898  -0.0558302  -0.4385619
   1.0798594   0.5515471  -1.2727653  -0.3381296  -0.4819825   0.2105014
   0.0292889  -0.4010694  -0.0419571  -0.6960706  -0.0617872  -0.2684165
   0.3557396  -1.1249881   0.1069580   0.2915263  -0.1153720   0.1017586
  -0.1743624   0.7580733   2.5016930  -1.1262345   0.8814268   0.1601396
  -0.0041416  -0.0331210  -0.0595050   0.8744507   1.0287087  -0.4785372
  -1.1888450   0.2347549  -0.0901820  -0.2509427   0.2252673   0.3954038
   0.1315829  -1.2196425  -0.8215871   1.0638521  -0.6031150   0.0773980
  -0.2496615  -0.1836229   0.0484692   0.0590367  -1.0521326   0.1281607
   1.1715401   1.7204810  -0.0713137   0.0948455  -0.0991942   0.2101366
   0.1612665  -0.2262938   1.4108828  -0.0863345   0.8862592  -0.4528639
  -0.0292808   0.2446878   0.1600061   0.1810159   0.3930607   1.8540636
   0.2244969   1.2317441   0.7340183   0.0925580   0.2569400  -0.1618476
   0.9495851   0.5031082   0.7942421  -0.2952498   0.0265852  -0.9563113
   0.3030507   0.1002774  -0.5278960   0.1536040   0.3740838   0.2862954
   0.0890666  -0.3461385  -0.7326146  -0.1482714  -0.0488548  -0.1200769
  -1.0674094  -0.4563260  -0.0066743   0.3324579  -0.3662250  -0.6764851
  -0.1777418   0.2439939   0.0140734  -0.3745643  -0.5778010   0.9663952
  -0.0696721   1.1402543   0.0959452   0.1219699  -0.2585076   0.0112499
  -0.1007318   1.4645156  -1.3410618  -0.1234650  -0.2279029  -1.4158165
  -0.1984936  -0.0158931  -0.0822088  -0.3114233   0.8833907   1.0497725
  -0.7071181   0.9415444  -0.0985085   0.0030727   0.1885964   0.0549155
   0.0323466  -1.3843139  -0.6386521   0.4046750  -0.0948376   0.3059399
  -0.3961205   0.3058166   0.0218784  -0.2140636   0.0721841  -0.7733714
  -1.4052826   0.4915258   0.3558716  -0.4701194  -0.2292484  -0.0071528
  -0.5124239   0.1487182  -2.0075903  -0.1454343  -0.0206527  -0.5038391
  -0.1459785   0.1083995   0.3102068   0.6968609   0.6382140  -0.0671941
  -0.8029990   1.2156076   1.6951679   0.3762822  -0.0108608  -0.1772574
   0.1163819   0.7023503   0.0505687   1.0056967  -0.4063405  -0.3940409
   0.0411759   0.0844681   0.0751284  -1.0474352   0.5360153  -0.3242520
  -1.1219828  -0.0403852  -1.2284976  -0.2551804  -0.4045159   0.1427864
  -0.7161426  -0.4610717   1.1211215   1.7773408  -0.4653918  -1.7088740
  -0.1975485   0.2626837  -0.1219835  -0.2345772   0.3918208  -0.8156810
   0.3787748  -1.0364490  -0.2493898   0.1982138   0.1381478   0.1061516
  -0.6910114  -1.2742890   1.4788502   1.3352110  -0.4120033  -1.3391577
   0.1730683  -0.2003118  -0.2297714   1.4550140   0.1170407  -0.1709907
  -1.0766437  -0.2507645  -0.5868470  -0.1114736  -0.3829056  -0.1986522
   0.0800968   1.0283097   1.4521134   0.3664064  -0.9374549   0.3925094
  -0.0554862   0.3283450  -0.4703976   0.3522418  -0.9072339  -2.1592233
   1.3103315  -0.3789141   2.0692658   0.0641281   0.1652784   0.0798831
   0.5312923  -0.4475508  -0.1616235  -0.4887189   0.2333307   0.6312881
   0.0622770   0.1783066   0.1203504   0.1974815  -0.0010710   0.5110857
  -0.4347750   0.3190603  -0.1938677  -0.1373166   0.3527922  -0.1306816
   0.4953027  -0.9092410   1.2181503  -0.1967388   1.3640571  -1.1480968
  -0.1574401   0.0522806  -0.1349864  -0.5751830   0.2933877  -1.0713698
  -0.8131804   0.8658985   0.1695250   0.0754742  -0.1929923  -0.1004501
  -0.6344241   0.1588678   1.2409638  -1.6671324  -0.4797446  -0.2357734
   0.2031406   0.2104251   0.1270709   0.0023276   0.3402016  -0.5488492
  -0.8908152  -0.5887232  -1.1449709  -0.1573898   0.4320329  -0.0683542
   1.9851207  -0.5693521   0.7214072  -0.1055102  -1.2307262  -0.7473779
   0.0044999  -0.1247646   0.2131512  -0.8757021   0.1587798   1.4531217
  -0.9828299  -0.2136787  -0.4637230   0.1936944  -0.0029606   0.1095910
  -0.5018879   0.0100117  -0.8581095   0.5558378  -0.0091449  -0.0734961
  -0.0071015   0.0791908   0.1493723  -0.0975773   0.0143581  -0.7890078
  -0.0601832  -0.1619449   0.2760514   0.1561893  -0.3413965  -0.1904531
   1.0559952  -0.9022362   0.7549953  -0.5466772  -2.7775092  -1.4124583
   0.0689490  -0.1893446   0.1364041  -0.3772275   0.8684726   0.9065912
   0.0203140   0.6277025   1.1456995  -0.0341223  -0.2514696   0.1244668
   0.2678283   0.7017519   0.5094445  -0.3821580   0.9296175  -1.1262372
   0.0854862   0.1047837  -0.1518698  -0.4319233   1.3103807   0.7601234
  -0.6609871  -1.1255234   0.4757577  -0.2087600   0.0257352   0.0859795
  -0.5939973   1.2246805   0.2957442   1.0607722   0.3229007  -0.2989865
   0.2865862   0.1000140  -0.0464183  -0.2179776   0.5584659   0.0161291
   0.0005430   0.4254965  -1.8940301   0.2226259  -0.1405345   0.1001434
  -0.5778831   1.1731081  -1.0247469  -1.2214357  -0.1153539   0.2230973
  -0.0063124  -0.1835907  -0.1814792   0.8428912   0.2033294   0.4081109
  -0.4530202  -0.3184713   0.1067614  -0.2622555   0.0754519  -0.0087889
   0.3373556   0.8090500   0.7283591   0.3378809  -0.4328032   0.3513136
  -0.3903227  -0.3762727  -0.0518784  -1.5522941  -0.0377822   0.4658166
  -0.8819056  -0.4084009  -0.4264182   0.3091657   0.1647146  -0.0471918
  -0.8530299   0.0939268  -0.7813795  -0.0233490  -0.9024609   1.3879924
   0.1216212   0.0329581  -0.0946846   0.5571178  -0.6369373  -0.7884136
  -0.2194941   0.1500134   0.9182017  -0.0806654  -0.0762180   0.0608182
  -1.1733439  -0.0398781   1.0833317   0.9095867   0.0217094   0.6470855
  -0.1360472  -0.0850268  -0.2166986  -0.0868897   0.8671070  -1.3946545
   0.2507779   0.7998841  -0.2353664   0.1700581  -0.0452975  -0.3432774
   0.8577176   0.0559510   1.3003960  -1.1086280  -0.5065392   0.4629773
  -0.1131324   0.0763619  -0.0519374   0.5934830  -0.4156787  -0.1587581
  -1.7197194   0.1940684  -1.1713126  -0.1669184   0.0003909  -0.0309476
   1.5365567  -0.0653660   0.9135411   1.2143782  -0.9479380   1.6725399
   0.3543996  -0.0533894   0.1448127   0.4972510  -0.4689729   0.6046733
   0.3126992  -1.5605217  -0.1171232   0.1887817  -0.0550251   0.0827200
   0.3544223   0.7010420   0.0543039  -0.0413935  -0.1956433  -0.5402703
   0.0124631   0.0471299   0.0100225   0.6207266   0.5277962  -1.0981407
  -0.2949582  -1.3994048  -0.6470546   0.0623220   0.1819368   0.2105370
  -1.2047459   0.4340534  -0.8105360   0.8768910  -0.3308755  -0.4196084
  -0.2298479   0.2583249   0.3750083   0.7248275  -0.4572357   0.2464109
  -0.7036317   0.2029278   0.3026258   0.0408287  -0.0567803  -0.0147867
  -0.8926761   0.7449127   1.6513488   1.4014421  -1.3151970   0.7545261
  -0.0772557   0.2327735  -0.0190762  -0.7448900   0.6687273  -1.0690264
   0.6496585  -0.0549459  -0.3013348   0.1987598   0.1701318  -0.0690203
  -1.0085487   0.1983402   1.1452583   0.6354030  -0.1733956  -0.0636065
   0.0883135  -0.1127165  -0.2474898   0.4990551   0.0346981  -0.3004610
  -0.7351767  -1.7180353  -0.8794309  -0.2919513  -0.1331514  -0.0359118
  -0.3199802  -1.2763426  -0.2256295   0.1520522   0.4836789  -0.1138135
   0.1255486  -0.3749013  -0.0385637  -1.1191968   1.3172907  -0.3225637
  -0.1807192  -0.1598554   0.8544453   0.3324756   0.1480512   0.2238144
  -0.9503568  -0.3534573  -1.0928754  -0.3681302   1.6238747  -0.5370364
   0.3511118   0.3270257  -0.1678328   0.5281675   1.9164902  -0.4782007
  -0.2167575   0.7944981  -0.5304310   0.1052355  -0.0081648  -0.0142324
  -0.3381115   1.4361759   0.1058257  -0.2892359   0.3878061  -1.0527741
  -0.0693937  -0.3120396   0.1277427  -0.6403850   0.6256683   0.5051848
  -0.8818052   0.8403211  -0.2102283  -0.2364183  -0.0672809   0.1955228
   0.4709249  -0.0455620  -0.2080715  -0.2363202   0.5224578   0.4093744
  -0.0114677  -0.3031900  -0.1268343   0.4983543  -1.2240255   0.5517046
   0.0175337  -0.8038160   0.6067381   0.0816430   0.1858758  -0.1243829
  -1.2957702   1.4333792  -2.3593290  -0.7863106  -1.2332271  -0.5003242
  -0.0842526  -0.3128797   0.1084467   0.6497930   0.1823184   0.8360726
  -0.0086078  -0.2668355   0.7627990  -0.5049702   0.1671247   0.0793235
  -1.5346050  -0.4931122   0.6640491   0.0612259   0.4349772  -1.0074537
   0.1161445  -0.3848091   0.4654843   0.0539744   0.4281147  -1.6188551
   0.3143498   0.4261858  -0.2023709   0.2511282  -0.0663905   0.0586166
   0.3898166   0.2061335   1.3474910  -0.6564388  -0.5999034  -0.9158732
  -0.3799187   0.0339189   0.0032261   0.4503723  -0.0190942  -0.2958286
  -0.6575801  -0.5073027   1.1078378   0.0027009  -0.0387054  -0.2385364
  -0.9362645   1.4826170   0.1953037   0.5119202  -0.8353702  -0.0459007
   0.0953177  -0.1236187   0.6451923  -0.5062777   1.0385033   0.5045435
  -0.9708948   0.6005280  -0.2025384  -0.1355817   0.2342470   0.2273722
  -0.2854982  -0.6359568   0.1340663  -1.0965729   0.3433465   1.5520384
   0.0094228   0.0912080  -0.0173046   1.1125190   0.1814390  -1.4966673
  -0.0712560   0.0883161   0.2891331   0.1606578   0.0864607  -0.0175736
  -0.7997893  -1.3874998  -0.5707385   0.5910143   1.3019116   1.3333026
  -0.2051969  -0.0453460  -0.3480460  -0.1886334   0.3237439  -0.9706753
   0.6485527  -0.9383299  -0.5090153   0.2596903  -0.3363738   0.0628702
   0.5772395  -0.4730569   0.2745602   0.6001171  -0.9242827   0.1619231
  -0.3442203   0.1537441   0.1737651   0.1172201   1.5135978   1.0003792
  -0.0771891  -0.6113486  -0.1050472  -0.0478647  -0.0779043   0.0000614
   0.2583790   0.7175696  -0.3000992  -1.5763632   1.1215947   0.8241007
  -0.0577656  -0.0497995  -0.0119450   0.2092032   0.9003589   2.1201544
  -0.7236004  -0.3993843  -0.1016694  -0.1638693  -0.1056973  -0.2694026
  -0.0755000  -0.3214986   1.2900743  -0.4361933  -0.2400773   0.0240394
   0.0891383   0.1324030   0.1409001   0.8498581  -0.0309574  -0.7004675
   0.1243271  -0.4334228  -1.7533754  -0.2091764   0.0603589   0.0593536
  -1.9118187  -0.1122606   1.5214616   0.4235303  -0.1658957  -0.8907642
  -0.1499145   0.0959829   0.3055811  -0.5776642   0.2700922   0.8907509
  -1.0726385   0.3335999   0.6768169   0.1654017  -0.1317937   0.3370767
   0.7361757   0.2035705   0.4347245  -0.7960061   1.0218718  -0.7288494
  -0.1082513   0.2137265  -0.3805225   0.2782651   0.4566297  -0.4490050
  -0.0904927   0.2216356  -0.1717887   0.0012773   0.0563719   0.5189254
   0.5151051   1.0147686   0.1239544  -0.4071686   0.9432675  -0.1609054
   0.0866559   0.1305217   0.2672411   0.1171254   0.7803528  -1.2339851
  -0.5162323  -1.4286846  -0.1131876   0.1021629   0.1426555  -0.0634573
   0.1079820   1.2827033  -0.2045864   0.9721716  -0.8382393   1.9034369
   0.4512364   0.5472345   0.1670209   0.1149551  -0.5160090   0.5937345
   0.7153108   0.9537124  -0.5450968   0.1286998   0.0230711  -0.0688605
  -0.2092848  -0.1568907   1.1060754   0.3415408  -0.8710659  -0.6629860
  -0.2672179  -0.2565012   0.4665493   0.6215652   0.5803328   0.1135093
   0.3397505  -0.3060747  -1.3141696   0.3041154   0.0133453  -0.0837115
   0.3748350  -0.3780797   0.6690890   0.1275520  -0.1217382  -0.7111603
  -0.2081597   0.2299887  -0.3024074   0.2252660   0.1181085   0.2656599
  -0.9313618   1.2886658   0.0118109  -0.0998835   0.2515612  -0.2065726
   0.8237696   0.5251786   1.4023105   1.2488716  -0.7818066  -0.0352544
  -0.2959173  -0.4786477   0.0119428  -0.0292845   0.1698603   0.1990434
  -0.3511648  -0.3161830   1.1191233  -0.0468680   0.0481203   0.0707647
  -0.8037470   0.8264906   0.0272231   0.9927437   1.7586325   1.7414637
   0.2513064   0.1265896  -0.3713394   1.4147652   0.4838799   0.8350187
   0.5036675  -0.3958851   0.0033819  -0.2041615   0.0811579   0.3553586
   0.1968220  -0.2593362  -0.3502364  -0.7901505   0.6581615  -0.3750906
  -0.2993470  -0.1359998  -0.0192673   0.0927781   0.7035128   0.9015058
  -1.0151715   0.4868416   0.5049077  -0.0416654   0.1206859  -0.1121228
   0.0261870  -0.4701369  -1.1132716  -0.4267388   0.9635627  -0.7518103
   0.1261321   0.3040948   0.0606456  -0.4031916   1.3235251  -0.0178478
   0.7236906   0.1085897   0.5580010  -0.2260722  -0.1156232   0.1086621
   2.1490436   0.4724996   0.2956576   0.8515106   0.1892045   0.0060712
   0.0529739  -0.0306203   0.4603898   0.1082194   0.6562681   0.1533252
   2.2176783  -0.9881436  -1.5376519   0.0875993   0.1841338  -0.0728931
   0.2704513  -0.4213582  -0.4595844  -1.9114016  -0.1134581   0.5418195
   0.2566896   0.1973528  -0.1189408  -0.8074238   0.8568801  -0.4851144
   1.2476752   1.7642457  -0.0536020  -0.0982731  -0.0787719   0.1575695
  -0.2998423   0.4679864  -0.0408208  -0.9051903   0.3331733  -1.0525419
   0.1688296  -0.1049385   0.1030103   0.9899210  -0.9670007  -0.4880016
  -0.0625953  -1.2655849  -0.0199828  -0.1808001   0.1682199  -0.0696137
   0.2103682  -1.1862190   0.6947474  -0.6800208  -0.5629215   0.4502219
   0.1365969   0.1621463   0.0042172  -0.5990270   1.6730322   0.9955937
  -0.4971042   0.6304613  -0.4039394   0.0145318  -0.1382823  -0.1391378
   0.7673401  -0.7985032  -0.7259207   0.2064261   0.0536645   0.3610184
   0.1051865  -0.2067008  -0.1811263   0.7563840   1.5826601   0.0779246
  -0.0416534  -0.0070079   0.7915557  -0.0239553  -0.0132403  -0.3167515
  -0.9066095  -1.4818099   0.3154303  -0.0640640  -1.1849234  -0.9126811
  -0.1242698  -0.3574287   0.1138936  -0.0970194  -0.1036293  -0.0387902
   0.1635482   0.3802904  -0.2854989   0.0815825  -0.0153020  -0.2274698
  -0.2169748   2.1046286   0.2752503  -0.8233635  -0.0965807  -0.3300431
  -0.0346751   0.0593073  -0.1956871  -0.3630596  -0.1487458  -0.3201695
  -0.3293011  -2.0287325  -0.3808377  -0.2695889   0.3373398  -0.2748394
   1.2509114   0.0951343   1.0009402  -2.2042215   0.8812240   0.9265479
  -0.0636921   0.1477523   0.4122775   0.5210955   0.3627842  -0.4830457
  -1.0679660  -0.5041921   1.4411533  -0.2072376  -0.1044774  -0.0566461
   0.7396379  -0.6895776   0.4357908   0.1846695  -0.0936724   0.2088338
   0.1915355   0.4747801   0.0076281   0.4546613  -0.2682473   0.2223327
   0.9118556  -0.0173229   0.4698382  -0.0969514   0.2812149  -0.2822544
  -0.5285529   0.0729537   1.8567981  -0.4745588   0.2762194   0.5291825
   0.1898825  -0.1254944  -0.1697178  -0.4477305   0.7479262  -0.3901700
   0.3726842  -0.9099658   0.5287569   0.2584457  -0.0306775   0.4467292
  -0.8308072  -0.1235400  -1.0674537   0.7150451  -0.1293411   0.1605256
  -0.1185254   0.0977861   0.0168224   0.1846072  -0.2580637   1.2768935
   0.3810031  -1.3448361  -0.6114794   0.1012219  -0.2168181  -0.0879455
  -0.4950172  -0.7781003  -1.4137040   1.0877028   0.8162189   0.1197456
  -0.1735226   0.0390819   0.0420598   0.2940115   0.1191444   0.6875540
   1.1314011   0.2406861  -0.2878807  -0.0428274   0.1123609  -0.0596082
  -0.4769220  -1.3888699  -0.2106298   0.6052001  -1.0474179   1.0885309
   0.3034560   0.0502411   0.2077669  -0.8790347  -0.8203319  -0.1965581
   1.0653380  -0.6612434   0.6046613  -0.4827414   0.2612703   0.2403716
  -0.9892606  -2.0778265   0.6759840   0.0573005   1.1921124  -0.4027808
   0.0118163  -0.2164464  -0.1186235   0.1858695  -1.5909623   0.0954472
   0.7116357   0.4970026   0.0813887   0.3016614   0.1024966  -0.0393033
   0.4127395   1.0146339   0.2473804   0.7850592   0.6463844  -0.8491942
   0.2321197  -0.0877334   0.0083415  -0.2310948   0.6769390  -0.3260544
   0.1190269   1.3228562  -0.2457701   0.1034382  -0.0018103   0.2681033
  -0.8343101  -0.0896399   1.1077483   1.6341380  -0.4037400   0.5315272
  -0.0085814  -0.1054039   0.2365030  -0.7681224   1.5418630  -0.9910672
  -0.2498183   0.0314701  -0.2230122   0.1596543   0.0530244   0.0640261
  -0.8824839   1.3195183   0.8649852   1.0928805   0.6704403   0.3379019
   0.0809985   0.1124208  -0.0756126   0.3227277  -2.3055823  -1.3592337
   0.0860118   0.2518967   0.0524519   0.2177245  -0.2254010  -0.1029584
   0.4880661   0.4951654   0.8396426  -1.7906533  -0.2027944   0.2040237
   0.0256235   0.1932814  -0.0141947   0.4158950   0.0005122  -0.0151153
   0.6784211  -0.1826805  -0.0885008  -0.1761218   0.3104284   0.0344154
   0.1441046  -0.3844824  -0.3089901  -0.0017977  -0.8378631   0.1664586
  -0.0273674  -0.1129023  -0.5652480   0.1251494   0.3455292  -1.0899788
   0.1161458  -0.6956348   1.3915956   0.0560172   0.0005648   0.2235666
   0.0744640  -1.1942520   0.2322971  -0.3406836   0.4531442  -0.7409366
  -0.3044176  -0.0633765  -0.0801768   0.1664009  -0.6739373  -1.1477931
   0.9137378  -1.2415246  -0.8112525  -0.1196190   0.0408474  -0.0156833
  -0.2698066   0.6200744   0.5848492  -0.6703051  -0.1499760   0.4659557
   0.0881441  -0.0089734  -0.2772244  -0.2562135  -1.1382689  -0.0547478
  -0.5068675  -0.2900241  -0.8425052  -0.0535499  -0.2822956   0.2877777
   0.8960264   0.4285919   0.2171366  -1.4425186   1.5680052  -0.2562612
   0.2210207   0.0777507  -0.1805769  -0.3993074   1.0848727  -0.1929885
  -0.2947645   0.4297131  -0.6726073   0.1846264   0.1163572   0.1333348
   1.3497971  -0.5226883   0.0657917   0.7132587   0.1679978  -0.1895442
   0.1202523  -0.0781794  -0.2007794  -0.2755629  -0.2807744   0.4424018
  -0.7437289   0.0874276  -0.4650517  -0.0122913  -0.3177209   0.4864582
   0.4396114   0.8460412  -0.0362664   0.7897288   0.1208293  -1.5655382
   0.1426938   0.3781096   0.0285871   2.1416781   0.0048929  -1.3288451
   1.0414069   0.1132953   1.7000291   0.1940450  -0.0726238  -0.0495938
   0.2653351   1.6070147  -0.4505496   0.7258867  -0.0813311   0.0250068
   0.0868547   0.0981630   0.3256556  -0.9642897  -0.2495022   0.7474533
   1.1829902  -0.1133350   0.8113332  -0.0455352  -0.0323361  -0.1111683
  -0.0078229  -0.0431942   1.3036189   0.4657472  -0.4296049  -0.2083602
   0.4498276  -0.1171970   0.1431267  -0.7105805  -0.2930700  -0.2697423
   0.3008106   0.0937944  -0.6597033  -0.0050797  -0.0203507   0.1033377
   0.0929145   1.2174654   1.5934960  -0.8485955  -0.4945520   0.7247298
   0.1785466   0.1226008  -0.1864782  -0.1780393  -0.4027841   0.2452381
  -0.3349414   0.9564316   0.4455001   0.4835261  -0.2272045  -0.1895299
  -1.0578109   0.2207547   1.8493482  -0.4766236   0.1974823  -0.3240733
   0.3477689  -0.2901900  -0.0337046  -0.1960310   1.8990952  -0.7211808
   0.4853714  -0.2285790   0.2367229  -0.2465040   0.1684379  -0.0288783
   0.0660454   1.5368184  -0.8863143  -0.3193012   0.6127361   1.1482409
   0.2091922  -0.1819274   0.0540986  -1.4364319   0.0763687  -0.1774136
   0.6200600   1.3526443  -0.1636723  -0.0076941  -0.3034860  -0.0753934
   1.1196412  -0.5361822   0.1205884   0.8943852  -0.2420392  -1.0496064
   0.2802678  -0.3299247   0.1352705   0.5702351   0.6657630   0.2831654
   0.5989579  -0.7278650   0.6862570   0.3714209  -0.2106420  -0.2461687
  -0.2188020   0.3156601  -0.6813821   0.4338843  -0.7616160  -0.4426551
   0.1400910  -0.2888065   0.0980948  -0.0564757   1.0444657   0.1141342
   0.9624269  -0.8131071   0.8712134   0.3131884  -0.0634829   0.0529019
  -0.4132770  -0.3475162   0.2372646   0.2152032  -0.4092334  -0.7805356
   0.0552603  -0.1531251  -0.0238242   1.0976539   1.0313143  -0.1359387
   1.5005977  -0.2697033  -0.3215344   0.1007951   0.1635400  -0.1842923
  -0.6174678  -0.9891576  -0.5810385  -0.1693598  -0.1529086  -0.4917417
  -0.0596791  -0.0651933  -0.3772915  -0.1789990   0.3657255   0.5937748
   1.1091121   0.1479334  -0.1941233  -0.2814952  -0.0611300   0.0724201
   0.5891322  -1.0759895  -1.2223128  -0.7847270   0.6016862   0.4578828
   0.4033439  -0.1833206  -0.0463530   0.4936841  -0.2876289  -0.2781250
   0.3022896  -0.4852555  -0.1514079  -0.2729134  -0.1512049  -0.0687641
  -0.3220895  -0.2949403  -0.3879060  -0.3046154  -0.5431206   0.8338062
  -0.0404269   0.1294601   0.1651979   1.1228186   0.4757863   0.4632721
   0.3514347   0.4955375   0.7523498   0.0280465   0.1646726   0.2536292
  -0.9646682  -0.7133559  -1.0860397   0.7196297   1.4762756   1.0807041
  -0.0586424  -0.1011076  -0.0890174  -0.7587163  -0.0638744  -0.6783764
   0.5913303  -0.8486261   1.0830492   0.1794928  -0.0974470   0.0935287
   0.4228736   0.3898315   0.8830718   0.7835431  -0.7098790  -0.1882516
  -0.2775979   0.0870382   0.0476742  -0.2385875  -0.1956862   0.4913418
  -0.3320215  -1.5630301  -0.8030475   0.0848308  -0.2797470  -0.4279386
  -0.6143193   0.5881822   0.6491902  -0.3349300   0.1653707   0.0062027
   0.0702429  -0.2446734   0.1186132  -0.5980234   0.0666803   1.5221745
  -0.7096853  -1.8780928  -0.6876003  -0.0498036   0.0534498   0.0024169
   0.6357751  -0.1409555  -0.7712972   0.1774672   0.4406610  -0.3745291
  -0.0059330  -0.2115670   0.1278197  -1.7542959   0.0470603  -0.0808458
  -1.0788836  -0.3152888  -1.0184422   0.1440219   0.3492801   0.0177780
   0.0478930  -1.3851117  -0.5340103  -1.0156823  -1.9993246  -0.8309343
   0.0485528   0.1639207  -0.1297493   1.2346718  -0.2400644  -2.0156012
  -0.8637202  -0.2433623  -0.6836262   0.5670068  -0.0312651  -0.0245677
   0.2299261   0.2577007   0.9561286   1.4278023   1.1063985   0.4460084
   0.1726831  -0.1218794  -0.0629648  -0.7607830   0.9555558  -0.4790926
   0.8979541   0.8666149  -1.4818999   0.1258692  -0.1025246  -0.2116038
  -1.0248369   0.7650223  -1.3571554   0.4640952  -0.4152023   0.6941141
   0.0454532  -0.0648589   0.1279671  -0.1478705   0.3171154   0.0281847
  -0.1919417   0.2597302  -0.3592136  -0.0940236   0.2783593  -0.2057491
  -0.5652453  -0.1306162   0.4665735  -0.6343778   0.6001427  -0.5926334
  -0.0011291   0.0084745  -0.1880285  -1.4528441  -0.5419631   0.0845310
   1.4035871  -0.3063327  -0.6197862   0.0465626  -0.0256178   0.0401465
   1.6420188   0.0342712  -0.8073542  -0.8271738   0.2630456  -0.5088902
   0.2505870  -0.1805212  -0.0072159  -0.3977380   0.7135287  -0.2813548
   0.1531849   0.6233425  -1.4036280   0.1145538   0.3119202  -0.2331441
  -0.2252811  -0.8689941  -0.1158171  -1.0871139  -0.4540628  -0.9621560
   0.0956401   0.0537441   0.0764896  -0.4368982  -0.3096604   0.6536931
  -0.1709449  -0.4808022   0.0651465  -0.2294869   0.2871419  -0.2955289
   0.6906515  -0.8456143  -0.6148130   0.3094599  -0.9877347   0.0594347
   0.0354604   0.0778468  -0.0209062   0.8014579  -0.6055034  -0.3228504
  -0.1715086   1.6105326   0.8029411  -0.2208743  -0.0909553  -0.0401143
  -0.0280945   0.4330531  -0.7617232   0.0813076  -0.8665429  -1.2730612
  -0.0828826   0.0651421   0.0869484   0.0160595   0.7021418   0.5646496
   0.5678793  -0.8109790  -0.8219748   0.0103753   0.3772175  -0.2631915
   0.2550776   0.2992843  -1.1651677  -0.1996189   0.3675392   0.9764711
  -0.6662076  -0.0148903  -0.2125164   2.0771000   0.2573766  -0.1910338
   1.9888101   0.8365912  -0.7201861   0.0107369   0.1356526  -0.0882593
  -0.0029665   1.1360689   0.1653528   0.1389796   0.2025384   0.4641947
  -0.4124240  -0.0697244  -0.2955100   0.2070964  -0.8691959  -0.5577222
   1.0015659  -0.2592265   1.0480083   0.0591908  -0.0316555  -0.5407613
  -1.5026228  -0.6950371  -0.0579705  -0.7329351   0.3861309   0.1319080
  -0.1793997   0.1021895  -0.1017619   0.4849575  -0.3041856   1.1773834
   0.4290823  -0.3552676   0.2287587   0.3285525  -0.1645743  -0.1587021
  -0.0442534   0.2927579   1.0642802  -0.9430400  -0.6278191  -0.3570219
   0.3627801   0.2643875   0.1100538  -2.0141368   0.1366568  -0.2646747
   1.0917110  -0.2253642  -0.2348256  -0.3203480  -0.0700578  -0.1602460
  -1.4932703  -0.6928921   0.1553065   1.8015560   0.4595461  -0.4021757
  -0.0941413  -0.0957112  -0.2929871  -0.4198605  -0.4389271   0.0791986
   1.3460598  -0.8749887   0.0431573   0.2507044  -0.1360606  -0.3257833
   0.2255450   1.8496861  -0.0803527   1.2450742   1.5777297  -0.5742455
   0.4229338   0.3004031  -0.0400659  -1.1430142  -0.2254128   0.8569309
   0.3047881  -0.3101790   0.5018106  -0.1288378  -0.2081271   0.1346969
  -1.2946249  -0.2418303  -0.1785557   0.5089791   0.5475832   1.1231548
  -0.3620764  -0.1028050   0.0354017  -1.1389244  -1.0825704   0.5817333
   0.1694532  -0.7968004   1.0208616  -0.3041363  -0.0717537   0.1133721
  -0.5805180  -0.0184973   0.2001016  -0.5789877  -0.3968023  -0.5388401
  -0.0335909  -0.2663397   0.0956421   0.0362264  -0.6954065  -0.1951706
   0.2899733  -0.5288517  -0.4802734   0.2982249  -0.2074712  -0.0266190
  -0.5091664  -0.6913958   0.2118585  -0.6942052   2.1197929  -1.5230899
   0.0881647  -0.1735161   0.1415980   0.6074707  -1.0071222   0.7780754
  -1.2268224  -0.1422598  -0.7825221  -0.0476275  -0.3811687  -0.2738257
  -1.0985916   0.2957864   0.9989998  -0.5350625   0.4741713  -1.3383557
  -0.1539143  -0.4033851  -0.1020241   2.1144197  -0.3787418   0.1982862
  -1.8986319   0.0992238   0.4716755  -0.2147692  -0.0652895   0.1421656
   0.7802399   0.8273578  -0.3128461  -0.3239673   0.8871473  -0.5142511
  -0.1163242   0.0287139  -0.0012719  -0.9614356   2.0716548  -0.1664869
   0.0745859  -1.3513173  -0.9140969   0.1406155  -0.1173686   0.2182953
   0.9608682  -1.4916123  -0.0228355  -0.5642529   2.0690823  -0.3691415
  -0.3266599  -0.0964149  -0.4681696  -0.6081788   0.6953307  -0.3620313
   0.0941314  -1.5752552  -0.0954020  -0.1319389  -0.2144413   0.0400024
   0.3427196   0.9190205   0.1830430   0.3261880  -1.2008244   1.2696502
  -0.1309894   0.1297414  -0.0035988   0.8178626  -1.5683373  -1.1742373
  -0.5774331   0.7478994  -0.3417948   0.2063034   0.1723923  -0.2683179
   0.4850226   0.4356776  -0.0090747  -0.3194613  -0.6013932  -0.3289283
   0.1716229   0.1953440   0.1737667  -0.6324775   0.8997964  -0.0809058
  -0.4169218   0.4062393  -0.4155908  -0.1976567   0.2165961  -0.1676193
  -0.8262069   1.4791664  -1.1077735   0.7096538   1.3731664  -0.7683262
  -0.1968115   0.0538074   0.3102850   1.1755195  -0.2514470  -0.9160990
  -1.2169765  -1.5405420  -0.1967696   0.3596056  -0.0106171   0.1449221
  -0.0219720   0.7292062  -0.7668782   0.1022802  -0.7242016  -0.0286670
   0.0677733   0.0450794  -0.0895575  -0.8975385  -0.9277956   0.4384904
  -0.3793945  -0.8016416  -0.2197471   0.1666437  -0.3000606   0.0888442
   0.1133533  -0.0986931  -0.5964484  -0.8190125   1.6405838   0.1478681
   0.2135985  -0.0949595  -0.0609759  -1.2208821   0.5399739   1.0886501
   0.4612613   0.8329421   0.1971997   0.0228529   0.0394035   0.0478788
   1.7858965  -1.1686839  -0.0083083   0.9393328   0.2412943   0.2456122
  -0.0984391   0.2132184   0.0243252   0.7298827  -0.3037098  -1.1878165
  -0.6511624   0.6777875   1.7736793  -0.2269375  -0.0158536  -0.0872969
   0.1389648   0.1858528  -0.7598251   1.0439922   0.8129036   0.4321720
  -0.0130119  -0.0638592  -0.1026797   1.1210235  -0.2857801   0.6680350
   0.4401099   0.3750207  -0.7103108   0.0614033  -0.2178332   0.0714308
   1.2709935  -0.6234888  -0.2263783   0.4538408  -0.9836743  -0.7957680
   0.0212093   0.0743487  -0.4024368   0.0740152   0.2992917   0.3660004
  -0.0775083   0.0947306  -0.0427892  -0.4212379   0.1906388  -0.0656043
  -0.3513795   0.9327842   1.5285412  -0.8240184   0.3664251  -0.9544419
   0.1256188  -0.1495782  -0.1950880   0.0399311  -0.8879538   0.4875220
   0.2737574   1.0016627   0.2113267   0.1059059  -0.2410800  -0.1899769
  -0.9094607  -0.8031055  -0.5322376  -0.5301100  -0.2116035   1.7198131
   0.2843863  -0.1318798   0.2660266   2.1649549  -0.4064788   0.7933121
   0.2013848  -0.8270470  -0.0654056   0.1302378  -0.0151199   0.1021023
  -0.5179052   0.3468731   1.6268200   1.4462605   0.4862268   0.5572100
  -0.0222855   0.2576663  -0.3905197   0.3116881  -0.3097887   0.1905086
   0.7340925  -0.5221482   0.5778334  -0.0823953   0.0744585   0.0003636
   0.6828098   0.3707316   1.1492203  -1.2157176   0.3576644   1.2947563
  -0.2011729   0.0941587   0.0883585  -0.1380840  -1.3034580  -0.0742081
  -0.0950572  -0.0914520  -0.7460091   0.1227503  -0.1335527   0.0890319
  -0.7652342  -0.1206223   0.7905537   0.0940447   0.5368273  -0.0540283
   0.0213757  -0.2817409  -0.2819802   0.7110901  -0.0347179  -0.6742502
   1.6415600   1.0384307  -0.0289253   0.2934153   0.1349476  -0.1339809
   0.1300000  -1.8440443  -1.0403185  -0.1285624  -1.2351098   1.7150085
  -0.1911217   0.0478743   0.2652744  -0.8133133  -1.7883593  -0.1768305
  -0.1842279   0.4989689   0.2174487  -0.0621473  -0.0699970   0.2874813
  -0.6039203  -0.5657309  -0.3687710  -1.4571320  -0.9664334   0.6498882
  -0.0342434  -0.2357507  -0.1926643   0.5754655  -1.1659051   0.7992916
  -1.2898624  -1.0850365  -0.1248411   0.0067105  -0.1436125  -0.2434401
  -0.0285602  -0.0041050   1.2255418  -0.5795539  -0.8991088   0.2874837
   0.1742551   0.0817705  -0.0023687   0.2627594  -0.9609717  -0.6061015
  -0.8804384  -0.4275450   0.7603422   0.0857861   0.1223916   0.0805862
   1.1513568   0.8405274   1.0982549   1.6459068  -0.7984269  -1.9378995
  -0.3520693   0.0343202   0.1196168   0.0057270   0.6901668   0.4283028
  -0.0549448  -0.9691784  -1.5036771  -0.1070506  -0.0108909  -0.2206336
   0.4309595  -0.0412931  -0.4687696   0.1885000   0.7136872   1.7163641
  -0.0272742   0.0664158  -0.1927178   0.8511679   0.7255963   0.6539631
   1.2082392   0.8970515  -0.2263420   0.1892450  -0.0574538   0.3045579
  -2.0554528   0.1947990  -0.8807431   0.1159431  -1.1334354  -1.4931083
  -0.1642103   0.3239159   0.4149072   0.5217066  -0.5684544  -0.4863747
   0.3210082  -0.8367385   0.4893535   0.0207493   0.2566169   0.2632638
  -0.4726348  -0.2417694   0.2930746  -0.3207434   1.2506145   0.3785794
   0.0674843  -0.0564155  -0.0723237  -0.1366080  -0.6290919  -0.2777843
  -1.1090969  -0.1595617  -0.8640891  -0.1008677  -0.0379438   0.2620279
   0.0535361   0.2195026  -1.2474505  -0.0529742  -0.5258498  -0.4602407
   0.2025294   0.0124826   0.1488108  -1.5820247   0.7908694  -0.5100684
   0.6792514   1.2736571  -0.3696499  -0.0234736  -0.0099011   0.1353176
   0.6629860   0.0281932   0.8460845  -0.4154384  -0.6508738   1.2593358
  -0.3999368  -0.1945152   0.1320918   1.8762127  -0.3154112   1.6203476
   0.0078003  -1.3548397  -1.0172877  -0.1658699  -0.0215773  -0.3987320
  -0.0629644   0.0201575  -0.3924413   0.0696116  -0.5167539   0.7139769
  -0.2808155  -0.0377583   0.0939908  -0.4967975  -0.0453876   0.4970131
  -1.2777399  -0.4511094  -0.4344246   0.1730227   0.3547668  -0.3994761
  -0.5631047  -0.7193372  -0.2479709  -0.8652598  -0.3333150   1.6215214
   0.0506872  -0.3098541  -0.3791699  -1.5419408  -0.5886177  -0.7697184
  -0.7799671  -0.0003291   0.5212702   0.3186866   0.1253209   0.1072862
   0.6228597  -0.2610823  -0.5374924   1.1548710  -0.9816876   0.8410599
  -0.1107703  -0.0996410   0.0274726   0.7326517   0.2415792  -0.2831889
   0.2847075  -0.4575511   0.5558623   0.1589395   0.2316395  -0.0974196
   1.4086958  -0.8561609   0.6534448  -2.3353212   0.1709114  -0.2517012
  -0.1995522   0.2900573   0.0556363  -1.6514021  -0.8104706   0.2666338
  -1.3093280  -0.4298779  -1.2103196   0.1382528  -0.1067107  -0.2108349
   0.1485403  -0.1905975   0.1878891   0.3358122   0.1823101  -1.4370524
  -0.2679587  -0.0630372  -0.3405239  -0.2139986   0.9566798   0.5132881
   0.3867646   0.4673423   0.1430927  -0.0899369   0.1189846  -0.0832505
  -1.3060995   0.1988029  -1.1369025   1.1487103  -1.6162714  -0.1944820
  -0.0079849  -0.0114611  -0.1711072   0.3412159   0.2415338   0.0448249
   1.0844140   0.5828711   0.4050344   0.0091426   0.2179350   0.1091255
  -1.1325778   0.1737952  -0.9459294  -0.1045535   1.4562188   0.6543679
   0.0113874  -0.3894829  -0.2318092   1.7630455   1.1951076   1.2024372
   0.6660137   1.8050311  -0.1977850   0.2912202  -0.0649336  -0.1605879
   1.3961562  -0.2589125  -0.3362076  -0.9392790  -0.0845994   0.6345128
  -0.0897902   0.3326404  -0.1155931   0.1250195  -0.1121244   0.3613283
  -0.8576592   0.2490894  -0.5527272  -0.4391683   0.1531843  -0.0841748
   0.5692154   0.3087830   0.1380917   0.2733615   0.8599672   0.5419343
  -0.0542894  -0.0972482   0.2468898  -0.0630767  -0.1125034  -0.6599447
   0.0074144  -0.7879177  -0.1167443  -0.2867908   0.0480962   0.2145432
   1.2174332  -1.0622331   0.0204708   0.7989221   1.3652687  -1.6618133
   0.0907476  -0.0720294   0.0868677  -0.9527571   0.4818600   0.3771302
   0.3036281  -0.4110644   1.3312329   0.1922656  -0.0610288   0.0700417
  -2.0375807   0.7499491  -0.2980675   1.4012125   0.2672957   0.4489192
  -0.3999263   0.1714058   0.2432147  -2.6591425  -1.4078939   0.4472067
   0.0583164   0.9119917   0.5013598  -0.1783507   0.0548173   0.3142263
  -0.7433068   0.1691564   0.3467688  -0.8258275  -1.7076923  -1.0226545
   0.1269021   0.4499272   0.0994116   0.5562080   0.6362360  -1.8363808
  -1.6051300   0.9839528  -1.2972393   0.1197395   0.1869823  -0.1101458
  -0.5269700   0.6354688   0.3817953   0.0678224   0.3840278  -0.0799635
  -0.4364515  -0.3466212   0.0464968  -1.7576857   0.3849821  -0.4178769
  -0.3519655   0.3465492  -1.2697498  -0.0486863  -0.1472301  -0.1024556
   0.3223899   0.5152566  -0.0257658  -0.7630658   0.9532143  -0.7544704
   0.2646413  -0.1373007   0.3174040  -0.1656195   0.6390986  -1.5888234
  -0.3033329   0.6508099   0.6594833  -0.2104367   0.2058311   0.2059527
  -0.2852907   0.0946884   1.2318730   0.8090403   0.2598183   1.3028820
   0.3613544  -0.0723365   0.0232946   0.7983382  -0.4225943   0.2415603
  -1.4878286  -0.6102946   0.0743165   0.0004445  -0.1641633   0.2406684
  -0.7148626   0.6406903  -0.5263797   0.4611455   0.4009974  -0.4313880
  -0.0374071  -0.0729867  -0.0887999  -0.9847857   0.0939284   1.1509631
   1.0601516   0.0922490  -2.1653152  -0.0200166   0.0570508   0.1222186
  -0.0393217  -0.1270825   0.0208879   0.5194200   0.4867956   0.6517323
   0.1399435   0.0096473   0.0989130   0.2350362   0.3026908   0.0572314
  -0.1592022  -0.1732221   1.1972253   0.1914828  -0.1483713   0.2177740
   0.0283552  -0.3850722   0.0118653  -0.3043496   0.1664399  -0.1969838
   0.2972083  -0.0466796   0.1806020  -0.6844856   0.0537378   0.6993940
   0.6526154   0.2651676   0.0619201   0.0214659   0.1886016  -0.0079744
  -2.0353160   0.6884276  -2.0422165   1.1616784   0.7186393  -1.3257148
   0.3642915  -0.1053280  -0.0593626  -0.0293222  -1.1902479   1.7722975
  -0.1798931   0.4215794   0.1420144  -0.0848218  -0.1370499   0.0780880
  -0.3568299   0.1336655   0.4854784   1.4846328   0.3557335  -0.6067426
   0.2607899  -0.0978294  -0.2217625  -0.7584122   0.4999566  -0.3602991
   0.1265000  -0.3535781  -0.4840869  -0.1279334   0.1051106   0.0772164
  -0.5564475   0.6084864  -1.2006012  -0.4179358   1.8681562  -0.4291027
  -0.2906758   0.2215785   0.1558370  -0.2432815  -0.6513395   0.5354439
  -0.3743528   1.7237376  -0.1907002   0.3508080   0.1791631   0.1125236
   0.4103142  -0.8907424  -0.2847667  -1.4442449  -0.2466780  -0.2357533
   0.0070251   0.3307580  -0.1080250   0.6065011  -1.7160479  -0.1846088
  -1.0165279   0.5043235  -0.4503698  -0.0672863  -0.1688611  -0.3652351
   0.1727525   0.2443062   0.6204398  -1.4196843   0.1559154  -0.1258132
  -0.0436423   0.2475317   0.1882222  -0.7853104   0.9101980   0.1955263
  -0.2644921   0.1466480  -0.8011473   0.1011305  -0.0010970  -0.1167154
   1.0049130  -0.2998861  -1.1675557  -0.4520686   1.1392502   2.0176151
  -0.2140552  -0.0186132  -0.1549885  -0.2647565   0.7013324   0.7687046
   1.8343327  -0.6625288  -1.3434173  -0.1510167  -0.0011680   0.1063120
   0.2382256   1.0742161  -0.4632422   0.4027189  -1.4188058  -0.3373329
  -0.0591714   0.2032160  -0.2549221  -0.5096919  -0.2071324  -0.4869081
   0.3590147  -0.0890349   0.4668673   0.2928753   0.0395485   0.0285543
   0.3595719   0.1755384   0.2819811  -1.0617571  -0.7816325   0.6434524
  -0.1549930   0.2489455  -0.1169350  -0.9077114  -0.4441671   0.3378446
   0.4646145   1.0014478  -0.7346208   0.0462756   0.3484626   0.1861919
  -0.6719790   0.8579765  -0.6583590  -1.3965657  -1.0231864   0.7656121
  -0.1568303  -0.2828200  -0.2126917  -0.0272864   0.2858253   0.1307053
   0.1681607   0.6027133   0.1511051   0.0229358  -0.0711801  -0.1894224
  -0.5435169  -0.1036669  -0.0028107   0.2895482  -0.0000510  -0.5391891
   0.1884469   0.0905739  -0.0332228  -0.2513989   1.3123535  -1.1428795
   0.2139715   0.3143138   0.1367652  -0.0882139  -0.0979342   0.2034267
   0.0005953  -0.1383273   1.2905347   0.7337970  -0.6908562   0.3119569
  -0.1828864   0.1889939   0.1408856  -0.4760667  -1.0697480   0.3624213
  -0.6473563   0.1315329   1.0915523  -0.3240131   0.0404664   0.1266359
  -0.4825474   0.8235346   0.2058441   0.1622086  -0.5488485  -0.0591093
   0.1385122   0.2317865   0.0867502   0.8197371  -0.0372932   0.0150160
  -0.2272415  -1.0652279   1.8708471   0.0254309   0.1892116  -0.2147007
  -1.6233046  -1.1693661  -0.8120326  -1.4028362   0.2316604   1.0175587
   0.0513500  -0.0635563  -0.3057396   1.0026799  -0.4689361   0.7699969
  -0.1710437  -1.7196398   0.7568054  -0.1919524   0.3090869  -0.2052823
   0.0628458  -1.1306019   0.4032623   0.1557450   1.3075523   0.0261661
  -0.1817929  -0.0826647  -0.2648982   0.6657284  -0.4439599  -0.8271834
  -0.4984610  -0.7267144   0.4074169   0.0275798   0.0013182   0.0642088
   0.4688703   1.7222227   0.1861897   0.2441619  -0.7633135  -2.2661629
   0.1314695  -0.1017153   0.1189105  -0.0424189   0.3019197  -2.4522629
   0.7461387  -0.8809865  -0.3641452  -0.2392694   0.1843867  -0.0620449
   0.2698663  -0.0661763  -0.0958030   0.8992272   1.4752032  -0.9042698
  -0.4007296  -0.1174557   0.0057110   0.0403244   0.4407971  -0.4118144
   0.6428169   0.6865362  -2.1209764   0.1265214   0.1193935  -0.3114607
  -0.3974727  -0.6784724  -0.6346195   0.1628111   0.1039023   0.1526676
   0.3081597  -0.2822692   0.0640740   0.1603268  -0.8042089  -1.2606719
   1.1406857   0.8886147  -0.8555330   0.1155325   0.1795490  -0.0930991
  -0.3294073  -0.2562606  -1.9132619  -0.3247597   0.6441240  -0.4384637
  -0.2255564   0.2430656  -0.0406392   1.4324154   0.9262590  -0.2642480
  -0.1440474  -0.4414269   1.7477294   0.0758437   0.0115325  -0.3688802
  -1.3562245  -0.3945098   0.9908158  -0.1663950   0.3159758  -0.2550362
  -0.0419142   0.0935696   0.0103185   0.9763152  -0.9482940   0.8872676
   1.2159123  -0.0506912   0.0236440   0.1059936  -0.2954135  -0.1576218
   0.4731602  -0.2640170  -1.1305606   0.2727190   0.1395462   0.6348230
   0.1513744  -0.1048483   0.1635197   0.7260103  -0.2336285  -0.0937055
   0.7596158  -0.2114149   0.2619945   0.2854077  -0.0432396  -0.2211301
   0.1347757  -0.2651423   0.1884153  -0.9872994  -0.6740817   0.1901498
   0.1583236  -0.0119170  -0.0526710  -0.4894645   0.1874394  -1.8744683
  -1.6882544   0.1239410  -1.0782974  -0.1159463   0.1602877   0.1651355
  -2.2329929  -0.1793182   0.3820592   1.5175095  -0.4307927  -1.1823205
   0.1353707   0.1448033   0.3098226   2.1352081   1.2530748  -0.6893342
   1.1351150  -0.1600983  -0.8436003  -0.1119012   0.1857511   0.4270438
  -0.0139256  -0.0156374  -1.2949253  -0.3304176  -0.3127400   0.1950654
   0.2914662  -0.0839356   0.0210411  -0.1709668   0.6304001  -0.6189907
   0.4388239  -0.5189955  -1.7017583  -0.2924245   0.1042369  -0.3618981
  -0.2498121   1.2912496   0.4006351  -0.8351570   1.1896459  -0.2998125
   0.0613427   0.2609878   0.1212723   0.2586128  -1.2045164   0.1467069
  -0.0274335  -0.7438399  -1.0400355   0.0646956  -0.2687396  -0.1528488
  -0.4797072  -0.4851479  -0.4630623   0.5296413  -2.0390987   0.9460610
  -0.3938672   0.3280585  -0.0319980  -0.2535847  -0.1524792  -2.8633261
  -0.8946825   0.2037336   1.0800554  -0.2718592  -0.2462439   0.2519982
  -0.4917141   0.0602064   1.1375607  -0.6263532   0.3383759  -0.6223243
  -0.0789405  -0.1603943   0.1680184   1.4384798   0.9337475  -1.3009198
  -0.0546564   0.3422117  -0.6067078   0.1007349  -0.2188430  -0.0221064
  -0.2046313  -0.1639405  -0.6081883  -0.2581985  -0.6932139  -0.5647038
  -0.1026975   0.3154465   0.0158098  -0.5396377   1.6124158  -0.1052843
   1.3110691   0.1505643   0.0536975  -0.2132482   0.1457281  -0.2525669
   1.3619448   0.3829814   0.5291438   0.8225834  -1.1329786   0.5378383
  -0.0856241   0.2009158  -0.1212562  -0.4579121   0.0488225   0.5051460
  -0.0570606  -1.7099283  -0.2303805  -0.2105895   0.2613316  -0.3576898
  -1.0897517   0.0073350  -1.2860854  -0.0680725  -0.1248467   0.4566264
  -0.4305744   0.3370740   0.1815767   0.3838878  -0.6207711  -0.6503547
   1.0120995  -0.5922869   0.0679936  -0.2190221   0.0567532   0.0962030
   0.8640613  -0.2945481   0.2392623   1.0305628   0.7698157   2.1728880
   0.0326344   0.1110604  -0.1070286   0.5586256   0.8929186  -0.6293983
   0.2010250   0.1784096   0.9881501  -0.1834391   0.0990035   0.2743177
  -1.1041745  -0.5642180  -0.0776246   0.0319153   0.9172572   0.8004567
  -0.0673547   0.0520950  -0.0454037  -1.3231519  -1.3379256  -0.6282652
   1.0568137  -1.9995013   0.5322110   0.1643592   0.5269614  -0.2232651
   0.4566720  -0.6091269  -0.5636411  -0.8085744   0.0304355   0.1164762
   0.0960319   0.2695643  -0.2057193   0.1314355   1.6466274   0.0947881
  -0.5754479   0.6895547   0.1734080  -0.0921871   0.0970133  -0.1324388
   0.9091366  -0.5651623   0.6836147   0.2112723   0.2148175  -1.3153067
   0.1589462   0.1548505  -0.0077401   0.5817567  -1.8145812  -1.0896866
   0.6260902   0.0470451   1.8886757   0.3835520  -0.1030666   0.2479331
  -0.1274906   0.8229475   0.9694510   0.7631298   0.1649208   0.5251465
  -0.0983771   0.0717024  -0.1020458  -0.2007680   0.5342898  -0.2625478
   0.3856742   0.8073474  -0.3530097   0.2769195  -0.0022110   0.0575703
  -0.4083861   1.0185070   0.6744399  -0.6669775   0.2317977  -0.3862270
  -0.0315482  -0.1786893  -0.1561017   0.3587857  -0.1090834  -0.3846925
   0.6139543   0.0614096  -0.1881798   0.1112890  -0.2988279   0.0477548
  -0.6535568   1.7979743   0.8210790  -0.9602912  -0.3229184   0.2736945
  -0.2688959   0.1380754  -0.3426519   2.0628154  -0.4857091  -1.5411180
   1.8483181  -0.8164285  -0.8749208   0.2227109  -0.0571101   0.0650329
   0.4857638   0.2259517   0.4377822   0.7190911   0.0824714  -0.5167781
   0.3686473  -0.0972557  -0.0519019   0.6488143   0.4621116   0.1748156
  -0.2562400  -0.2215018  -0.3065507  -0.0759564   0.3315703  -0.3315842
  -0.7590703   0.1517334  -0.1761249  -1.3173734  -0.7051411   0.9925543
   0.1780950  -0.2146661  -0.1199188   0.1673873  -0.0016477   1.4858694
   0.0203704   0.5065930   0.0052751   0.1354810   0.0809836  -0.1299262
  -0.5923164  -0.8352997   0.1247858  -0.5558781  -1.1454917  -0.3985726
  -0.1094821  -0.1934106  -0.1055722   0.7311984  -0.2053753  -2.3528914
   0.8231965  -0.5441496  -1.0917289   0.0609991   0.3401244  -0.0000517
  -0.6302239   0.1972373  -0.5673943  -1.6237184   0.9489688  -1.0633231
  -0.1321432   0.0312633  -0.0035061  -0.1180343  -0.2515748   0.4644292
  -0.6426664  -0.2185883   0.8506652  -0.1467750  -0.0526848  -0.0008169
   0.1088490   0.8261461   0.3739905   0.3511163   0.4422926   0.7103797
  -0.2297684  -0.1113225   0.1313266  -0.4051916   0.5240303  -0.4918086
  -0.1004699   0.1961508   0.5373961  -0.0023063   0.0781355   0.1003817
  -0.2818928   1.4628730  -0.7253016  -0.9801195  -0.2560993  -0.1914798
  -0.1413675   0.1190735  -0.1005025   0.4557062  -0.0566975  -0.5592556
  -1.5110357   1.1589572  -0.2268928   0.0899720   0.1120566  -0.0168025
  -0.0165424  -0.7260073  -1.1063708  -1.0470357   0.8763126  -0.0450149
   0.4217489   0.0143857   0.2866577   0.9116892   0.0385960   0.5183123
   0.7000980  -0.0261686  -1.0370876  -0.0601523  -0.1341046  -0.0457785
  -0.3105875   0.1584741   0.2623335   0.7602462  -0.1765099   0.5213478
   0.1877096   0.2307023   0.1712102  -0.2824137   0.5137820   0.9055938
   0.2033626   0.4006192   0.5684201   0.0542430  -0.1307393   0.0117239
  -0.6062557  -0.3776201  -1.1905080  -0.6891867   1.4236178  -1.0115830
  -0.0002836  -0.1818779   0.0737588  -1.4525819   0.1339027  -0.0173618
  -0.6363950   0.3642275   0.7247812  -0.0474749  -0.2607620  -0.2948262
  -0.8560240  -0.4852768   0.0792454   0.6149793   0.0359210  -0.7391099
  -0.0382483  -0.1776993  -0.2236013   0.5846761  -0.3131183   0.0679077
  -2.1653717   1.8007877   0.0845502  -0.2878684  -0.2521635  -0.2237817
  -1.2108852  -0.4375492   0.9562858   1.0861453   1.0415885   1.4638507
  -0.3638208   0.1909751   0.0104759   0.1908608  -0.2932958  -1.0041020
   0.4027333  -0.2928878   0.7285914  -0.1216008  -0.1340021   0.2947887
  -0.0344938   0.0634439   0.3865190   0.6020668  -1.1759413   0.3397827
   0.1220325  -0.1324488   0.3563081   0.5306267   0.4080632   0.7443728
  -1.3002009   0.0709283  -0.6401621  -0.0033362   0.1074110   0.3574929
  -0.6593353  -1.5566506  -0.3795745   0.5363347   0.2428422   0.4411648
   0.1934535   0.0005880  -0.1648157   0.1666838  -0.4243197   0.2337967
   0.7179391  -1.1701272   1.3056991  -0.0763528  -0.2007363   0.0941804
  -0.7222404   0.9373027   0.8004380  -0.4077743  -1.0367637  -0.5295469
  -0.1711592   0.0590608   0.2734858  -1.0524943  -0.0730822  -0.3880327
  -0.6627419  -0.3807904   0.6057794   0.0892326  -0.0783913  -0.1497680
   0.2244792   0.0281512  -0.3970187   0.0466956   0.1916160   0.2729865
   0.1208128   0.0090615  -0.1595365  -0.1397616   0.3045286   0.2169057
  -0.3250538   1.1441569   1.1767458  -0.1186070   0.2344321   0.2253662
  -0.9062528   0.0120341   1.4928279   1.0153644  -0.3250482   1.3937072
   0.3038916   0.1789819  -0.2396225  -0.8644287  -0.3668834  -1.6221989
  -0.0073289  -0.3751504   0.3430854   0.0098319  -0.0599991  -0.3618839
   1.9468619   1.4223970  -0.2459879   0.8083639   0.6749464  -0.6397828
   0.0023238  -0.1117335  -0.1855794   1.0899271   0.1911618  -0.0864552
   0.1854500  -0.4696784  -0.5005320  -0.3999074   0.0591050  -0.0355077
   0.7029000  -0.3356299   0.6128199   0.6884884   0.0242547  -0.4658956
   0.1189905  -0.1448309  -0.2063065   1.4176346   0.0361513   1.1522725
   0.1960968   0.5674694  -0.6810305  -0.0054012  -0.6413493  -0.0526938
   0.0395531   0.9389544  -1.1181287  -0.2866874   0.9763093   0.0421862
   0.4037125  -0.1296848   0.2317398  -0.2761276   0.1882391   0.5442234
  -0.2870554  -0.4029353   0.7773407   0.0036778  -0.2718248   0.1040182
   0.2464009   0.4330379  -1.8270941  -1.0754571  -1.2254555  -1.4476601
  -0.2079877  -0.0177603  -0.1300534  -0.7162559  -0.6536148   0.6825488
  -1.1523001   1.1039504   0.8388575   0.2300613   0.2727438  -0.2348616
   0.0076951   0.0469027  -0.1318969   1.3088062  -0.3033703   1.1335751
  -0.0472346  -0.1695528  -0.4056332  -0.8401949   0.5359114   0.3644957
  -0.6730589  -0.9386632  -0.2067560  -0.1751901  -0.3569971   0.0712355
  -0.1686538   0.1876270   1.7331312   0.0259597   0.5732780   0.0332153
   0.1740590   0.1305169  -0.1509577  -0.3824415  -0.5566660  -0.1170589
   1.0898794   1.3460476  -0.4865057  -0.0004944   0.2032422   0.0845726
  -1.2472070   0.2542191   0.2342962   1.0521134  -0.6940261   0.0284450
   0.0554706  -0.0714292  -0.2478749   0.9672415  -0.3502661   0.6868095
  -0.5427961   0.8654435   0.4948108   0.0454494  -0.2226629  -0.1978906
   0.0566827  -0.0654280   0.9533468  -0.3780814   0.2851255  -0.4098008
   0.0813368  -0.1104130   0.0924575  -1.6642468  -0.7869055   0.1130580
   0.8252449   1.1911855  -0.4561536  -0.3307704   0.0207145  -0.1292621
  -1.0762548   0.0741302   1.1833045  -0.9121710  -0.6893356   0.6120512
   0.0642025   0.3188522  -0.2081827   0.1811235  -0.5593187  -1.6055205
  -0.8339016   1.2242876  -1.5705596  -0.0433958  -0.1272457   0.0133786
   0.1216142   0.6032702  -0.2982057   0.9037158   2.2386739   1.1158615
  -0.0444752   0.0387237  -0.0117043   0.2187654   0.4616033  -1.0083172
  -0.5769239   1.2160447   0.2468502  -0.2867078   0.2470510   0.0270734
   0.3870000   1.0534097  -0.1392632  -0.4673927   0.2744947  -0.0588477
  -0.0639857  -0.0925153  -0.0522772  -1.3049227  -0.3083338   0.4586339
  -1.3259805   0.8641145  -1.2314775  -0.2874737  -0.0139575  -0.1437296
  -0.5564613  -0.4928115  -1.4067658  -0.1966598   0.6726588   0.4206984
   0.0651600  -0.0147916  -0.1196759  -0.6423376  -0.1330841  -1.0492003
  -0.4017301   0.4193428   0.2404550   0.0461879  -0.0399587   0.0997515
   0.2966060  -0.1487986   1.0041482  -0.1091273  -0.6905222   0.9882800
  -0.0726620   0.1278261  -0.0104287   1.3334138  -0.1600527   0.4905248
   0.0559309   0.1478160   0.1867335  -0.1034491  -0.0301864  -0.5988498
  -1.7546042   0.8305750   0.5970446   0.9932745   0.1653653  -0.0534741
   0.2089164  -0.0095222   0.2703621  -0.0743007  -1.3895777  -1.1609787
   0.4961143   1.2794704  -0.5616746   0.1645588   0.0504789   0.2578484
   0.0204965   0.2718382   0.3751778   0.9287543  -1.1289872   0.4643309
  -0.0470362   0.1960218   0.0869441  -0.7627034   0.1194106   0.6585600
  -0.2199866   0.1285546  -0.4024878  -0.1103873  -0.1389619   0.0299219
   0.4455982   0.2057087   0.7391805   0.1509890  -1.1272191  -0.2137397
   0.1003281  -0.0418013  -0.0794942  -1.6097674  -0.1245978   0.6643624
  -1.4524167   1.0830584   0.0800381   0.2125893  -0.1002227   0.0426495
   0.2360156   0.3976050   0.2894957  -0.1035945  -0.4738199  -1.2735236
   0.4378307  -0.0707956  -0.0302427  -0.8673676   0.1472401  -0.2122096
  -0.1945435  -1.9450498   0.2934490  -0.1286279   0.0119032   0.2640085
  -0.3497485  -1.3275483   0.4419715  -0.3642840  -0.8328813   0.7408547
   0.2846494   0.0078467  -0.2990299  -1.1012951   0.9765482  -0.2296494
  -0.3841420   0.6878740  -0.3078969  -0.3074301  -0.0858379  -0.0554261
  -0.2280216  -0.2488521  -0.8304322   0.0441784  -1.8252608   0.1548857
  -0.2376781  -0.4428557   0.1646205   1.5685542   0.1097650  -0.5436100
  -0.2936045  -0.1817958   0.5875767   0.3105089   0.0409639   0.1651298
  -1.4806361  -0.6289094  -1.4915540  -1.3020451   0.1789588  -0.4169863
   0.0452825   0.0519070  -0.2150030   0.6858031  -0.3099518  -0.9271976
  -1.5638598  -1.3095675   1.2774439  -0.0910742  -0.4745915  -0.1236432
   0.6068439   0.2267790  -0.3487865   0.3935008   1.7930779   0.4325219
   0.2039177   0.0573356  -0.0581049  -0.2379118  -1.0124999  -0.0961343
  -0.2825364   0.9354970  -0.3912447  -0.1173243   0.0252636   0.1867241
   1.5307901   0.3650227  -0.1143337   0.6446543   0.6573894   0.5987421
   0.0126936   0.1426021  -0.0044155  -0.9424884  -0.0841331  -1.2414138
  -0.5317380   0.4618487  -1.2881482   0.0830850   0.0156434  -0.0538263
   0.0839741  -1.1480991   1.1400368   0.8946788  -0.1545716  -0.2378543
   0.0970756   0.0212591  -0.3989671  -1.0533311   0.3346406  -0.3850397
  -0.1295627   1.8493669   0.4575898  -0.2889784   0.0058692  -0.0001588
  -0.6487306  -0.8283531  -1.2183809   1.3627789   0.0652939  -1.0727816
   0.3188706   0.1033255   0.2147401  -0.2536793   1.1086282  -0.4425770
  -0.1978951   0.5550025   0.6874957  -0.1378847  -0.0091699   0.2155777
  -1.1901859  -0.5604786  -0.3171159  -0.6390847   0.8902807   0.0346594
   0.2399615   0.1683743   0.0323253   0.4198072   0.2578685   0.7833928
  -0.6418762   1.0103922  -0.6115260  -0.1560504   0.1515159  -0.2452529
  -0.0054547  -0.4712602  -0.6871199  -0.0977966   0.1041571  -0.2291530
  -0.1402847   0.0400927  -0.0107565   1.3002586  -0.1955476  -0.0052520
   0.2841847   0.9476088  -0.0900061  -0.0985619  -0.3306317   0.1179571
   0.6119815  -0.2828366  -0.1326113   0.2373719   0.3881649   1.0786402
   0.2577098   0.1049634   0.2331317  -0.1062813  -0.8696900   0.6530405
  -1.3165257   0.0443000  -0.7758951   0.1409896   0.1404994  -0.3158509
  -0.5111842   1.2339637  -1.8675908   1.5454630  -1.7333120   0.3442896
  -0.0275089   0.4238664   0.1246813  -0.4730164  -0.7917013  -0.1036995
  -0.3716662   0.5812093  -0.1897692   0.2996858   0.2653353  -0.1360134
  -0.1813747  -0.3490654   1.0703460  -0.3664189   0.2348191   0.1055684
   0.0714750   0.0258208  -0.0678049   1.5708580  -1.0438665  -1.7841265
  -1.2591370   1.0096210   0.4265285   0.0418405  -0.2849973   0.0149389
  -0.1747283   0.4064402  -1.0138197  -1.5689418  -0.2651970  -0.7287326
   0.2150338   0.2339560   0.0560560  -0.9947478   2.1950872  -2.2520380
   1.8173721  -1.5219899   0.7817622  -0.0321223  -0.1588896   0.0929072
   1.7282031  -0.2183989   0.5323535   1.8833388   0.2092039   0.1536515
  -0.0708137  -0.0028025   0.0138215   0.1013618  -0.2104766   0.9451255
   0.3226452  -0.2661960  -0.4376707  -0.2177019   0.0539989   0.1272908
  -1.3204257   0.9066144   0.3154965  -1.1718693  -0.3021861   0.7712530
   0.0465786  -0.4075619  -0.1172989  -0.9856884   2.2727993  -1.1176715
  -1.2354927  -0.8111276   1.5661948   0.0288340  -0.1567189   0.0299686
  -0.7131988  -1.7344503  -0.0023771  -1.2190797   0.8022058   0.0621277
   0.1232316  -0.2580835  -0.1439275   0.5633423  -0.2316424  -0.3288800
   1.5169760  -0.5771070   0.0176086   0.0136490  -0.0645705   0.2287278
   0.2795061   0.5276384  -0.8578749  -1.1105946   0.6379505   0.2401484
   0.2172465  -0.1989304  -0.1490669  -0.6196821   0.1810497  -0.9831583
   0.8901679  -0.6646497  -0.4202294   0.2400673   0.0297624   0.2744049
   0.2355752   0.1336947   0.3228157  -0.2526153   0.8299467   0.5579059
   0.1081735  -0.2038864  -0.0133595  -1.6815854  -1.4696761  -0.6658632
  -0.0297775   1.6795039  -0.8048512   0.2030364   0.0268901  -0.1407349
   1.8749911   0.9657469  -0.4014332   0.6957690  -0.1526529  -0.0607100
   0.0150490  -0.3863402   0.1143056   0.3181105   0.9598562  -1.2670475
  -1.1828344  -0.8732563  -0.2247882  -0.0195942  -0.2478684  -0.5796147
   0.3121254   0.9450911   0.1883721   1.1192378  -0.2343347   0.3454607
   0.2224923   0.2908272   0.2113945  -1.5234926  -1.4331933  -0.5254421
  -0.9028703  -0.4774416  -0.6207364   0.1166065   0.0183260  -0.3229584
   0.2508298  -0.9239797   1.5146627   0.3651816   0.2487152   1.5063434
  -0.3915839   0.0773780   0.0350254  -1.3049842  -1.0818253  -0.2876950
   0.8575523  -0.4850585  -0.6723291   0.0165667   0.1840135  -0.0541463
  -0.6172458   0.4902680  -1.1381050   0.0382243   0.2217404   0.4477332
   0.4775016  -0.0169134   0.0429735   0.0004490   0.1217505   0.2159362
   0.7252699  -0.4944648  -0.0777209   0.1461545  -0.5441422  -0.1826296
  -0.1463568   0.7701237   0.0306569  -0.8039074  -1.8433375  -0.3585609
  -0.0115540   0.4402994  -0.2169354  -0.5432189   0.4846951   1.3883818
  -0.7059098   0.4374912   0.8438480  -0.0195618   0.0328904   0.0645349
  -0.8044173   0.9940048   0.0767305  -1.3232807  -0.3665555   0.6202468
  -0.2353012   0.1989490  -0.0073673  -1.3283026  -0.1268857   0.8688863
  -1.0057138   0.1955428   0.0771252   0.0696173  -0.0621628  -0.2583920
  -0.9777240  -0.3480021   1.1729711   0.3037133  -0.6712368  -0.5179538
  -0.2784593   0.0077455  -0.2937041  -0.1355236   0.8885243  -0.2612703
  -0.5003726  -1.6088049   0.9948729  -0.1691562   0.0677981   0.0210563
  -1.0867442  -0.7967476  -0.1254472  -0.8848799  -0.1222498  -0.5980400
   0.3548825   0.2375679   0.2101129  -1.1214950   0.1506873   0.5336863
  -0.0822994   0.0271501  -0.8537056   0.2244119  -0.1808726   0.0603333
  -0.0377571   0.1543790   1.4658631   0.7848815  -0.6456219   0.9119132
   0.1154632   0.1131336  -0.1840982   0.8744516   1.0210385   0.8054992
  -0.1031864  -0.6989314  -0.4430024   0.1043922   0.1011524   0.2903896
  -0.7306176   0.0551913  -0.7143472   0.0596236   0.7050290   0.4571755
   0.2696742  -0.2199484   0.0078109   0.2114687  -0.1781348   0.1149413
   0.0812547  -0.7342869   1.5514967  -0.1169759  -0.1815426   0.0884813
   0.6986962  -0.8938630   0.3636888  -0.3146169  -0.2723242   1.1242508
   0.2401138   0.0631863   0.0545388  -0.0450549  -0.8242345   0.2696430
  -0.1125366   0.4168697   1.0591954   0.0278134  -0.1988174  -0.2087762
   0.4546588  -0.2559377   1.3907448   1.3773710  -0.5213127   0.7344077
   0.0946179   0.0696518  -0.3360001  -1.2009829  -0.2459586  -0.9863954
  -0.0791312   0.0411441  -0.1599560   0.0097450   0.2176826   0.0124543
  -0.0544164  -0.5629435  -0.1328457  -0.9243080   0.2746105   0.8586301
   0.0607961  -0.0010670   0.2500670   1.4536711  -0.0514567  -1.7997495
  -1.8414899   1.3124084   0.2425131   0.5324117  -0.1970596   0.0179085
   0.3496178  -0.2859451  -1.3161855   0.5810015   0.5101568  -0.3530419
  -0.2822984  -0.0334635  -0.1559400   0.6174725  -1.5534873   0.5753290
   1.0520210   0.7596421   0.6649181  -0.0260801  -0.6096947   0.1256028
   2.4429648   0.9219158   0.2154736   0.3524259   0.6686100  -1.4698260
   0.1951136   0.1056691   0.0233036   0.5581021   1.0228839  -0.5647563
   0.0336482   0.3571062   0.8616027   0.0640811  -0.1172876  -0.3903990
   1.7001303  -0.3443233  -0.1255635  -0.7561272  -1.1576916   0.5662442
  -0.3126979  -0.3463570  -0.1393421   1.6638969  -2.1424656  -0.6957784
  -0.2147494   0.3834718   0.2435506  -0.0884654  -0.2042877   0.3101136
   1.1890340   0.3163552  -0.3842598   1.3424217   0.0543047   1.0336174
  -0.3749813  -0.3513184  -0.1042819   0.3837892   0.0152723   0.0343392
  -0.0812111   0.0879752   0.3407499  -0.1776545  -0.2037372  -0.0139260
  -0.6682588  -0.0236878   0.9556836   0.4529624   0.2120668   1.4691988
   0.3004757  -0.1388383   0.0011797   1.0265638  -1.9335778  -0.2779967
  -0.6734141   0.4999276  -0.1234413   0.1286334  -0.1891087  -0.0119419
   0.0781083   0.4537432   1.0259676  -0.1909555   1.0666989   0.1224218
   0.0246777   0.1551510   0.0727817   1.0046784  -0.8826638   1.5045183
   0.9557752  -0.0136253  -1.4573480   0.1383853   0.2411328   0.1284737
   0.0402966  -0.0324578  -0.3395486   0.3436578   0.2949226  -0.5726144
   0.0923287  -0.2179858   0.2045589  -0.3750252  -1.2168981  -0.0725798
   0.1637725   0.2741192   0.5718532  -0.0567722  -0.1634652   0.0157447
  -1.2385367  -0.6804734  -0.9038100  -0.5109854   0.5467792   1.2271435
   0.0194044  -0.1537600   0.6355804  -0.1855060  -0.3991515  -0.0304163
  -0.1191276  -0.5463307   0.6151538  -0.0573544   0.5236379  -0.0745638
   0.2996460  -0.5771849  -0.7140937  -0.8276646   0.1687695  -0.4230442
  -0.4380457  -0.3063229  -0.0188252   0.3620901   1.1014369  -1.0376594
  -0.4449421  -0.8996998   0.2379287   0.0575324  -0.3391622  -0.1150796
   1.4771050   1.0868362  -1.0572156   0.0324121  -1.1732059  -1.1623559
   0.0359134  -0.2457640   0.0847403  -0.1683262  -0.9780143   0.0561004
  -0.3869036   1.2378126  -0.5830638  -0.2042973  -0.1277151   0.1324263
   0.2176869   0.6002346  -0.5038207  -0.4272365  -0.5537762   0.1356843
  -0.1341626  -0.1965231  -0.0758819  -0.2535329  -0.2688362  -0.1442980
  -0.3506038   1.0718504  -0.9414619   0.2368836   0.0622669   0.2512442
   0.9473830  -1.3854605   0.1100819   0.5545131  -1.0527112  -0.1872317
  -0.3811890  -0.0603364   0.0358832   1.4152924   0.0068611   0.0049900
  -0.5769724  -0.5037997  -0.2101350  -0.2187265   0.0408486  -0.1347319
   0.7383425   0.4092078   0.8038464  -1.0797440   0.7246925  -1.0082204
   0.0873716   0.0388959   0.1572740   1.6673290   0.3607268  -0.4618802
  -0.0467425  -0.8494431   0.3158374   0.0771384   0.0381125  -0.1292810
  -0.8445835  -0.5832590  -1.0897387   0.7705889  -1.0534664   1.2135907
   0.0022960  -0.3904881   0.2737882  -0.4179795   0.1656658  -1.1366607
   0.6703615   0.1998619   0.0235466   0.4202629  -0.0190614   0.3779252
  -0.1382107  -1.2148187  -0.1605729   1.9995589  -0.3432484  -0.2303474
   0.1021683  -0.3923180  -0.2794175  -0.5138145  -1.4340327   0.1705946
   0.4401756   0.2014834  -1.5990682  -0.3142560  -0.0007687  -0.7086257
   0.2700908  -0.1717828  -0.4863917  -0.2205612  -0.7498887   1.1924188
  -0.0007297  -0.0343670   0.0242728   0.7362447  -0.4667873  -0.0335931
   2.4579861   1.4154967   0.1850166  -0.0876431  -0.0913213  -0.1297509
  -0.0612702  -0.9345305   1.1779317   0.5425573  -1.4181842  -0.2907238
  -0.1319553  -0.0262602  -0.2687900  -0.4312972   0.5938417  -1.3422019
  -0.9370694  -1.0854539   0.7260294  -0.0367534   0.2250887  -0.0075295
   1.3189882   0.1830004  -0.1088286  -0.5792591  -0.2523986   0.5687879
   0.0655347  -0.2162713   0.3031250  -1.4947228  -0.3150197  -0.4985272
   0.2137295  -0.4544971  -0.0947488   0.1543145  -0.1236763   0.0121442
   1.3622688   1.4716194   0.8120448   0.1820373   0.1138239   0.7009788
   0.1660904   0.1262280  -0.2226470   0.4258542  -0.9348317   0.9047865
   0.4365846   1.0552043  -0.6653552   0.1495307   0.0874130   0.0682502
   0.7798928   0.0056814   1.1477352  -0.5060008   0.1457876  -0.7780400
   0.2183110  -0.0560497   0.1970913  -0.0732158  -0.9198637  -0.9010502
  -1.8333933   0.4323304  -0.2033936  -0.5522708   0.0933088  -0.3257629
  -0.3489097   0.1946789  -0.7561588  -0.9396289  -1.5673217  -0.9047943
   0.1058951  -0.2440670   0.0100295  -0.3343953   0.3064949   1.3324190
  -0.1621170  -0.2558031   0.3471173  -0.1674800  -0.0246352  -0.1543450
   0.3643740  -0.5224009  -0.1160841   0.2712904   0.7982117   0.0436040
   0.0875194  -0.2786946  -0.0150745   1.0432283  -0.4688173   1.5898646
  -1.3468693   0.4683120   0.2307132  -0.1675473  -0.0048872   0.1630119
  -1.0883222   0.3526878   1.9662718  -0.2546431  -0.4066419   0.0919696
   0.0445245  -0.0207342   0.3098685  -0.7249501  -0.6311578  -0.3803020
   0.5259724  -0.0982262  -0.1818504  -0.0092613  -0.1756982  -0.0141641
   0.3320224  -0.8762797   0.5300322  -0.4535170  -0.3911701  -0.2078657
  -0.0235523   0.1815274  -0.1196167  -0.3068475  -0.0748008  -0.1385165
   0.9134170   0.3232203  -0.9774145  -0.0627887  -0.0709707   0.1149703
   0.0796343   1.3787365  -0.5968863   0.8498488  -0.2326216  -0.4891703
   0.2616402  -0.2289130   0.0487439  -0.2670743   0.6859216   0.0462446
  -0.4254193  -0.2391932  -0.3955890   0.3168308   0.0611175  -0.0129540
   0.9405274   0.8613488  -0.7769535   0.5295370   0.7347144   2.1274889
   0.2491609   0.0248122  -0.1748343  -0.0640783  -1.1464317  -0.3262071
   0.6801452   0.2143266  -1.0183766   0.0426030   0.0081694   0.2413412
   0.1426917  -0.4450799   1.0242062   1.7892246   0.5691606  -1.9314723
   0.5953911   0.1041523   0.1142981  -1.6219225   0.4900590   0.3842548
   1.0144011  -0.6109584   0.5783531  -0.0984303   0.0983587  -0.0133111
  -0.2130320   0.0696559  -0.2190714  -0.6125023  -0.4067745   0.2227635
  -0.3266402   0.0823887  -0.1526324   1.0143747  -1.4778777   0.0313868
  -0.8017917  -0.4116700   0.5880886  -0.0321611  -0.3192407  -0.0381111
  -0.3434971  -1.2188487  -1.3334833  -0.4192156  -1.3583508   0.8567659
   0.1255606  -0.3077773   0.0294028   0.3271880   1.2388316   0.3647503
  -0.5209631   2.1221027  -0.4506747  -0.0959532   0.2103458   0.0014126
  -0.2247449   0.0838461   0.5937167   0.2132096  -1.3187138   1.0328647
   0.0514196   0.0644602   0.2823685   1.0480978   1.1991227  -0.5769945
   0.1188831  -0.2119554   1.2237979   0.0854639  -0.2605485   0.0612289
  -0.1677956  -0.4102385  -0.8063987  -0.7059002   0.8604613   0.3633515
  -0.2504902  -0.0314470  -0.1345506   0.3343027   1.0471252   0.6444371
   0.4562877   0.6364210   0.2211554  -0.0777672  -0.0866622   0.0233491
   1.1377871   1.5550754   0.9006857   0.4093555  -1.0099852  -0.5403491
  -0.3408074  -0.1496224  -0.3293303   0.5650795  -0.8678696  -0.2201996
   0.3196824  -0.1250931  -0.1257815   0.0117529  -0.5035355   0.2818301
   0.7389446   0.3716168   0.6518869  -0.3997025  -0.2914316  -1.5223162
   0.2936808  -0.0102728   0.0900256  -0.0976352   1.0514165   1.1760646
  -1.6980613   1.2688171  -0.1164672  -0.1170730   0.0199943   0.2297893
   1.3071846  -0.3987461   0.5696721   0.5140530  -0.2944500   1.3769357
   0.0463794  -0.0969574   0.0042075  -0.1782794  -0.4023003  -0.7761573
   0.3361825   0.0527943   1.2155384  -0.0151046   0.2518283  -0.1888344
   1.8603735  -0.7900382   0.0153448   1.1505660  -0.8165379   0.9572487
  -0.2571983  -0.1383504   0.1843091   0.1562865   0.0405299  -1.4524360
  -0.3900968  -1.3867502  -0.6662652  -0.1249513  -0.1104419  -0.0564000
   0.6305764   0.1399735  -0.9963890   0.4154412   0.2443776  -0.2029344
  -0.2216032   0.0364796  -0.2776414   0.1767340   0.1701869  -0.8065004
  -0.4153585  -0.7237937   1.1379979  -0.0554389  -0.0723463   0.0709368
  -1.0292962  -0.4462225  -0.9139053  -1.7215980   0.0921434  -0.5810666
  -0.1468689   0.0403346   0.1556048  -0.8345672   0.4687647  -1.0550367
   0.7553851  -0.8619763  -0.4066724  -0.0313368  -0.2304493  -0.0599068
  -0.0777135   2.0119431  -0.0684350   0.1597418   0.2359055  -0.6282150
  -0.0269364  -0.1715486   0.3638271  -0.1322731   0.1345303  -1.0440851
  -2.0431011   1.6033663   0.1321952   0.1877155   0.0527529  -0.0193348
  -0.1952436   0.0202008  -0.7790035  -0.1787295   0.9790846   0.4449996
  -0.1425754  -0.1745907   0.0481685   0.8539393   0.6503176   0.5825321
  -0.4657704  -1.2814243  -0.1725741   0.1563527  -0.1725049  -0.0275831
  -0.4077780   0.2964881  -0.9942355   0.1101409   0.2973809   0.8730198
   0.1350102   0.3337536  -0.0466834   1.2373190  -0.0158988   0.2813955
  -0.5673659   0.9155203   0.6548784  -0.1627842  -0.0336047  -0.1255512
   0.5131752   0.2590289   0.6596293   0.0328569   1.1285806  -0.4349890
  -0.1615734   0.4148434   0.1532407  -1.2439975   0.1056036  -0.1518685
   0.4107042  -0.3342877   0.9138381  -0.3960713  -0.5184482   0.0385377
  -1.0943236  -1.1789975   0.6670870   2.2390587   0.5396444   0.5200980
   0.1985012   0.0899381  -0.3276538  -0.6795542   0.6809597  -0.2283125
   1.3731537   0.4698742  -1.4408740  -0.0616596   0.3593683   0.3148776
   0.3635247  -0.0281327  -0.1668060   0.2756354   1.8273658  -0.7675443
   0.0099931   0.3662303   0.1415188   0.3324646   0.2565156  -0.5292634
  -1.3251969  -0.3560845   0.2894580  -0.2765269  -0.2044346   0.1843045
   0.4834103   0.7362635   0.9135500  -0.5452583  -0.8600704  -0.7406834
  -0.3537608   0.1270815  -0.1780241   0.5578682   0.0167061   1.0903068
  -1.1665379  -1.1258913   1.4198688   0.1171145   0.0880738   0.0298045
  -0.0524211   1.5168164  -0.4692477  -1.0806122  -0.4752642  -0.7155409
   0.0550220  -0.2113767  -0.1249641  -0.4814962  -1.7322097   1.4406921
  -0.3158567  -2.2289848  -0.3921066   0.1508009  -0.1170903  -0.2457942
  -0.4700969   0.2885614   0.5293332   0.6785067  -0.0432484   0.4385834
   0.0115175  -0.1413129  -0.1197721   1.5626597   0.3894266  -0.7274690
   1.4914995  -0.9650130   0.9016983  -0.0874906   0.3269183   0.0682240
  -0.8083872  -2.2248967  -0.0558900  -0.1065376   1.0949144  -0.3028921
   0.1415823   0.3777596   0.2698683  -1.1978551  -1.1446397   0.5954918
  -0.5092935   0.8747920   1.2994231   0.2063989   0.1147952  -0.0667389
  -0.6481093  -1.0612510  -0.9145148   0.7103311   0.4497966   1.1766945
   0.0308441   0.0302747   0.1280358  -1.1339252   1.3341300  -1.5311457
   0.7987140  -0.8183857   0.7500264   0.0175458  -0.4606507  -0.2568510
   0.4071869   0.2215807   0.6059785   0.0902510  -1.6245881  -0.7480192
   0.2958391  -0.3224720   0.0022972   0.5373889  -0.0008615   0.0319434
   0.3488448   0.6054502   0.2560239  -0.1120756   0.2349005   0.3833056
   1.8142239  -0.2258182  -0.3715750   0.9847135  -1.1211611   0.9844451
  -0.0437428  -0.0959722  -0.0586140   0.2201781   1.6914937   0.5051615
  -0.0086756   0.9746332  -1.3528249   0.0983277   0.2239670   0.0476454
   0.0933949  -0.3094113   1.5127130  -1.0550587  -0.7894744  -1.5507143
   0.2008824   0.0094604  -0.0166914   0.9679365   0.4383186  -0.3314799
  -0.3695476   0.4212238   0.5350574  -0.1985997  -0.3905478  -0.2479557
  -1.0850152  -1.0211134  -0.5024984  -0.8183482   1.8527446  -2.1558480
   0.3330502  -0.0128377   0.2426212  -1.0378065  -0.9528595   0.2559915
   0.1302773  -0.8073659   1.4585855   0.2643460   0.0680593   0.0945325
  -0.9407991  -0.2408287   0.0828512  -0.8245940  -0.8226327  -0.1895955
  -0.2286845  -0.1014422  -0.0361063  -1.1571769  -0.3663900  -0.3702759
  -0.1079509  -0.6498993  -0.4366603  -0.0614696  -0.1336687   0.1504287
   0.5374286   0.0189880  -0.0812417   1.3390882  -0.4244788  -0.3400524
   0.3387509   0.3922114  -0.0361729   1.2151638   1.1392357   1.0670800
  -1.0557274   1.2815238   0.4397205   0.1264333  -0.5164269   0.2087026
  -0.5867226   0.0521424   0.3723266   1.7971952   0.5288178   0.1036668
   0.0819995  -0.3796762  -0.1543562  -0.5010551   0.8579286   0.7989804
  -0.3665038  -0.8996649  -0.4911700  -0.3149873  -0.1376235   0.0270724
   0.2668598   1.5913422  -0.4595339  -0.0984393   0.4944553  -1.0464635
   0.2911396  -0.0428732  -0.0610847   2.5232153   0.4379080  -0.1333290
  -0.6033208   0.9178200   0.0820811  -0.2523630  -0.2611073   0.1532664
  -1.2458972  -0.3717384   1.1688721  -0.2585317   1.2271744   0.2858944
   0.3084434  -0.2670409  -0.0702561  -0.9709383  -0.4486767   0.1498879
  -0.9031075  -0.9499326   0.2073050  -0.3519176  -0.2014664  -0.1504614
  -1.3996074  -0.0244851   0.3550160   0.0453692   0.5417054   0.3460981
  -0.0799241   0.2942887  -0.0956847   0.5942082   1.5133481  -0.4891942
   0.2253992   1.0528718   0.0820864   0.2668544  -0.0937069  -0.2790720
  -0.7475727  -1.3642795   0.1964528  -0.3382626   0.4238647   0.9286100
  -0.0846793  -0.1874911   0.0584147   0.3122820  -1.3093873   0.2273701
  -0.0559408   0.9641788  -0.6416799   0.1013442  -0.0021950   0.0857009
   2.0681303   0.4199262  -0.6197510  -0.8916086  -0.4911861   0.8399457
   0.1645875   0.1922376  -0.1021791  -0.1059676   1.4552927  -0.3878539
  -0.8219868   0.0356738  -0.0688754  -0.0513157   0.0193372  -0.2065847
   0.2295568  -0.3132536   1.4752878  -0.1994967  -0.9629135   0.4665123
   0.0151236  -0.1218531   0.2939917  -0.7803580  -0.6260413  -0.8194087
  -1.2682729  -0.5873777  -0.9962445  -0.1035597  -0.1680146  -0.0800833
  -0.7817119  -0.9771870  -0.9125530   1.7059079   0.2515785   1.2927399
   0.3014279  -0.2106552   0.0838031  -0.2314742   0.7635238   0.7689338
  -0.9409338  -0.2029452   0.4742211  -0.0507523  -0.2648353   0.0911511
   1.0420669   0.0802779   0.4568572   0.6897861  -0.1799382   1.6098176
   0.0270003   0.0773953  -0.0404574  -0.0308447   0.3526015  -0.4571591
   0.5394766   0.6296492   0.8358068  -0.0054267   0.1538700   0.0868441
  -0.3690248  -0.4244721   0.7159127  -1.0065339   0.0090264  -0.5652353
   0.0477451  -0.0218213   0.0214923   0.9642999  -0.5183946   0.2456460
   0.1286390  -0.6359324   0.5360813  -0.2673314  -0.1141710  -0.0404585
  -0.6202098   0.4578649   0.1312219  -0.4386833   0.8777519   0.7927071
  -0.0861196  -0.0621685  -0.2117701  -0.2241228  -0.4199171   0.3717967
   0.8428611   0.0226161   0.4341006   0.0513510  -0.2482986  -0.2371198
  -0.7962570  -0.5526260  -0.4511905   0.1646217   0.6192617  -0.5171814
   0.2002586  -0.1988368   0.0893788   0.4258471  -0.3611750   0.0718150
   0.1879055   0.3455426   1.4066519   0.1482860  -0.2074410  -0.0210016
   0.1260301  -0.9660575   1.0911021  -0.4630684   1.2763195  -0.2032111
  -0.1125193   0.1167801   0.2644989  -1.2840281  -1.3365675  -0.2863066
  -0.5456453  -0.2656422   0.8218823   0.1653972   0.2387132   0.2688818
   0.4519607   0.2251758   0.2302726   0.1502903  -1.1333566   0.1117299
  -0.2647859   0.0952206   0.2036085   1.8850379   0.6256747   0.1181696
   1.8295873   0.5511243   0.0069883   0.2268227  -0.0796393  -0.0449780
  -0.1110642  -0.2595692   0.7618921  -0.8291107   0.6898562   1.1015800
  -0.3302208   0.2060697   0.0398932   0.7790654  -0.6367764  -0.5007940
  -0.0920364   1.2033994   0.4471329   0.0544684  -0.0965862  -0.0596778
  -0.3081177   0.6867614   1.4871913   0.3888401  -0.5560474   0.2928928
  -0.0553025  -0.1114135   0.3227599   0.9678302  -0.4307465  -0.4644089
   0.4276669   0.1016109  -0.2839206   0.2864469  -0.1551059  -0.1527115
   1.1800849   0.0780008   0.1530400  -1.2297125  -0.3215482   0.1018164
   0.0118660   0.1978493   0.2229328   0.1269329   0.1671296   0.4899679
   0.6725875  -0.5556993  -0.1220481  -0.0079943  -0.2822804   0.2512489
   1.3340383   0.2961223  -0.3241934   0.2805657  -0.1963926   2.0109904
  -0.3815537   0.2112445  -0.2788456   0.4889969   1.2074410   0.5178574
  -0.2647618  -0.5148953   0.0487061   0.0454971  -0.0594079   0.2264104
  -0.4031381  -0.0698223   0.7460189   1.3995694  -1.5081722   1.7496856
   0.2420028  -0.1016395   0.0185569  -0.7019035   0.1139166   0.2246027
  -0.3001290   0.3669606   0.5403033   0.1143447  -0.2330289   0.1514004
  -0.6241153   0.6017531  -0.4048640   0.4793994   0.6244611  -0.2009783
   0.2579894  -0.2842512   0.2242820  -0.8223400   0.9802464   0.1642296
   1.3696040  -0.7126794   0.2369228  -0.5091255   0.1723889   0.0259653
   0.2074446  -0.6603894   0.3289888   1.4358376   1.4333529   0.4541837
  -0.0018040  -0.0852426   0.2394433  -0.4561849  -0.5242741   1.0415471
  -0.4078269   0.5495888  -0.3488828   0.3701179   0.3149587  -0.1994023
   1.7051553   0.2870818   0.1288659  -0.0674400   0.2084231  -0.2916158
   0.0982606  -0.1598025  -0.3160296  -0.3494107   2.5913136   0.0343204
   0.1070606   0.2185766  -0.4349598  -0.2893743   0.1554281  -0.0981141
   1.0683423  -0.4144758  -0.9483860  -0.2659702   1.6818955   1.9767952
  -0.0537908   0.1891431   0.1553046   1.1327904  -0.5734550   0.6765144
  -1.1354874   0.2169176  -0.4968497   0.0266048  -0.1671043  -0.0837875
  -1.2254711   0.4232489   0.2361411   1.1111805  -0.0036244   0.7215150
   0.1026595  -0.0806574  -0.4306888   1.2789328   0.4946341  -1.9613434
   2.8484347   0.2127520   0.0913268  -0.2626835  -0.1238359   0.1959358
  -0.0702575  -0.8021301   0.1055344   0.8509969  -0.0160234  -0.0753054
  -0.1483267  -0.1085700   0.2920628  -0.4659459   0.3065849  -0.4839746
  -0.3791786  -1.2945576   0.9507301   0.1197955  -0.0250247   0.1353611
  -1.1042324   0.8106972   0.3810117  -0.2647855  -0.0281116   0.2809047
   0.0265400  -0.3332888  -0.0221857  -1.8540485   1.2359936  -0.1020119
  -0.6338420   0.6761214  -0.6543142   0.1665303  -0.2831196  -0.2675893
   0.1895415   0.1483676   0.5096638  -0.1021653  -2.1388905   1.1417474
   0.3105466  -0.0964258   0.1656728  -1.4002413  -0.5403051   1.3730652
  -0.3196270   0.4005274  -0.0630397  -0.4539857  -0.2247047  -0.2368435
  -0.9655435  -0.5950369   1.6294466   1.9023261   0.8209497   0.1846858
  -0.6983516  -0.0307172   0.2212934   0.4558606  -0.7786584  -1.0180959
  -0.9487218   0.0617077  -0.0586227  -0.0089695   0.1831855   0.0412394
  -0.8480181  -0.4478922   1.9426962   1.8838978   0.2344217   0.8114668
  -0.0975075  -0.0125415  -0.2366578   0.4676421  -0.3026219  -1.3133416
  -0.9653178   0.0487887   1.3584201  -0.0579752  -0.5181181  -0.0285876
  -0.1478152   1.2404095   0.0823474  -0.1193168   0.8645563  -0.1337367
   0.0919282   0.2768781  -0.4226029   0.6483086  -0.6656459  -1.6142902
   0.0022702   0.2962017  -0.0601424   0.1152978   0.0158637   0.1498585
   0.1471340  -0.1264321  -0.0852002   0.9550303   1.0624474  -0.3665219
  -0.2080527  -0.0289972   0.1022004  -0.6915585   0.2384282  -0.7862070
  -1.5776988  -0.6277992  -0.8238415  -0.3123746  -0.1416364   0.1194882
   0.6053314  -0.1207020  -0.1260025   0.5332218   0.8778359  -0.2454560
   0.2130262  -0.2607599  -0.1148316   0.9256377  -0.4351499  -0.1645344
  -0.5243247   0.3113784  -1.3410192   0.0227721  -0.2527053   0.1809877
   1.0805129  -0.2176237  -0.6662797   1.3003172  -1.5365437  -0.0837179
   0.0457933  -0.0550342   0.0694023  -2.1612742   0.9147148   0.5437521
  -0.3554511  -1.3649412   1.1785361  -0.0673223   0.0859060  -0.3222501
  -0.6145028   0.8686914   0.0217644   0.8280047   0.0780951   1.2496399
  -0.1275306   0.0558685  -0.0032223   1.2103518   1.8434484  -0.5231752
  -1.0200677  -0.8187938   1.2405719  -0.4419281   0.1083911   0.0403162
   0.1592449   0.6754911  -1.3412268  -0.9417395  -0.3839812  -0.0131502
  -0.0182544  -0.1109844   0.2136562   0.9091243   0.9450393   0.0298746
  -0.9050733  -1.0711038   1.6958346   0.0219585  -0.1561054   0.0524774
   0.3901014   0.2444402  -1.0779917   0.4176349  -1.2154053   1.2148274
  -0.2175362  -0.0477649   0.0758103  -0.5624282  -1.5602272  -1.4415523
   0.0707940   0.5329286  -0.0761329   0.0763653  -0.0755319   0.0308144
   0.1284473  -0.0352658  -1.5980186  -0.2940950  -1.4525633  -0.2192820
   0.3211583  -0.0806830   0.0955102  -1.2063825  -1.8772836  -0.3961596
   0.5370021  -0.3812653  -0.1920466  -0.0535064   0.2409746   0.0411238
  -0.4465554  -0.7851717   0.2754622   0.3874729   0.6945408   0.5175442
   0.0387379   0.0919254   0.4471725  -0.4005469   0.3490536  -1.1030047
  -0.7005823   0.7570816   0.4268403  -0.3219632  -0.0516618  -0.1267746
   0.3657989  -0.2815236   0.4754414  -0.1420651   0.6763521   0.1544066
  -0.1095261   0.0935093   0.3626091  -0.1163343   0.2575811   0.2069119
  -0.1027428  -2.6030819   0.8236839  -0.0485832   0.0254681   0.0404754
  -0.1284730  -0.8413864   0.5984293  -0.3425318   0.8158278   0.6669973
   0.0146005   0.1957415   0.1858526   0.0220078   0.6616442   0.7226648
  -1.1826434   0.4604288  -1.5315340   0.0179717   0.1335147   0.2982269
   0.6364715  -0.0660319   0.0807788   0.7664334  -1.1343253   0.8248499
  -0.2263903   0.0402358   0.1250157   0.1268077   0.7996548   1.5522414
  -0.9513396  -0.4444857  -1.2507041   0.0526638  -0.2339718   0.2219286
   0.0722820   0.2843597  -0.5590544   1.2819189   0.5023546   0.7174361
   0.1126535   0.0316764  -0.3384761  -0.3421253   0.3397888  -0.5891843
   1.3983910   0.9951881  -0.8975527   0.0437596   0.1196455   0.1286412
  -1.0892874  -1.3787628   0.2499095  -1.2657222  -1.6047170  -0.1953885
  -0.0031370   0.1731507  -0.1421643  -0.5023385  -0.3228350   0.1873421
   0.9027655   1.6618563  -0.4232294   0.0308239   0.1195901   0.0786200
  -0.2758647   0.1266739   0.5859305   0.6052578  -0.0644724   0.3574225
  -0.1345028   0.1962189   0.2429518  -0.8180282  -0.7160547  -0.3058550
   0.5311356  -0.4594896   1.5465120   0.2204661  -0.2245093  -0.2514287
  -0.0107094  -0.2681098  -1.1718203   0.4712309   0.7382107  -0.5766490
  -0.0572837  -0.0755068   0.1065523  -0.0651862   1.0627216  -0.8534586
   1.1720814  -0.3336579  -0.8216305   0.0470542  -0.1133378  -0.0649340
  -1.3993788  -0.1287414   0.3737074  -1.0364106  -0.1385003   0.0446344
  -0.2404108   0.1004598   0.0985807   0.6980485  -2.2727294   0.3920600
   0.3574834   0.1043073   0.0423601   0.0585176   0.0440159  -0.2355153
   1.5447782  -1.1080962   0.3951268   0.5276849   1.9426397   0.4296478
  -0.2262291   0.2143966   0.1599924   0.2049727   0.6464722   0.1072046
  -1.3235540  -2.0260379  -0.6098924   0.0047749   0.3310483   0.3038313
   0.0691718   1.0973746   1.2758980  -0.0841035   0.1367737   0.4081721
   0.3623907   0.1890709  -0.1346774  -0.1927630   0.6855705   0.5199244
   0.3237770  -0.4779008  -0.3747833   0.0263037  -0.0233062   0.4979372
  -0.1274887   0.7961107  -0.4894040   1.1127803  -1.7042981   0.5945813
   0.1677710  -0.1080691   0.3446871  -0.0969158  -1.0347688  -1.2877716
   0.2340494   0.5545579   0.6441308   0.2112810  -0.2489205   0.1076001
  -0.0241186  -0.1272339  -0.0078702   0.1375428   0.2039056   0.1291871
  -0.2738959  -0.0207422  -0.0145704  -0.4309877  -0.8312036  -0.5741135
   0.4212019   2.1587634   1.0981151   0.1504080   0.1162764   0.1430102
  -0.5555211  -0.2216446   0.0079154  -0.1987718   0.1610805   0.5296162
   0.2171348  -0.1174065   0.3595636   1.8920519   1.4178449  -0.2438795
  -0.3424003  -0.4900786  -0.6738047   0.0354234  -0.1932079   0.0538410
   1.0146728  -0.4452071  -0.4343619  -0.0230675   0.4507577  -0.0266680
   0.0751679   0.2555402   0.1441082  -0.8985966  -0.6673047  -0.7251867
  -0.2628187  -0.5781116  -1.1085824   0.0522725   0.1471079   0.2461264
   1.5185573  -0.7918299   0.7061437  -0.0017751   1.4183147  -1.9414788
   0.1235698   0.1553795   0.0672927  -0.7529695  -0.4843167   0.0447709
  -0.9944965   0.7639234   1.3129889   0.3662872  -0.1340155  -0.3888375
   0.4229903  -0.1534090  -1.2664421  -0.0986400   0.0679007   0.9894199
  -0.0558818  -0.3280363  -0.0293422  -1.2315780  -1.1877832   1.2139933
   0.2830717  -1.1340603  -0.3636983  -0.0802056  -0.1375433  -0.1218392
  -0.6219651  -0.0270071  -1.4045717   0.5501982  -0.0350161   1.5779812
  -0.1724725  -0.4476814  -0.0835816   0.4224235  -0.4549245  -1.7874842
  -1.7565180  -0.2262555  -1.2023475   0.1931349  -0.0008703  -0.2548143
   0.3133042  -0.8185064  -1.0404141   0.8856148   0.3020079  -0.5711764
   0.2750857  -0.0847843  -0.0529590  -1.2282186   0.3292460  -0.0584740
  -0.4672834  -0.7911807   0.0357798  -0.5213680   0.0293925  -0.0642417
   1.6375545   0.4595983  -0.6062336   0.7749149   1.1440436   1.0533006
   0.2959145  -0.0766215  -0.1109828  -1.6359861   1.5887028  -0.9076317
   0.5657585  -0.8899872  -0.2304474  -0.2506724  -0.0975571   0.0619651
   0.8621679  -0.6294446  -0.3824586  -2.2761166   0.6511080   0.3695087
  -0.0721807   0.2208522  -0.2411296   0.5471362   0.8033863   0.4794432
  -1.0064554  -0.3337825   0.4855480   0.1931721  -0.1590962  -0.0626269
   0.5906456  -0.5272349   1.8038179  -0.6127535   1.0587004  -0.1492390
   0.0568015  -0.0527939   0.0977123   0.9945499   0.8156309  -0.6481030
  -0.9550344   0.4175405  -0.4720888  -0.3952480  -0.0050478  -0.3068039
  -0.3579361   0.3583680   0.5419272  -0.1105530   0.5931885  -0.0821456
  -0.1995477   0.1229558  -0.0567511   0.5896595   0.3972573  -0.2846023
  -1.7741780   0.2116769   0.8292793   0.0766833   0.1643139  -0.2004624
  -1.6264129  -0.1292319   0.1186626  -0.2719674   0.0994088   0.5836793
   0.0345305   0.0604198  -0.1023167  -2.0155320  -0.6423899   0.2789279
  -0.4872197  -1.0766089  -0.4240894   0.2391297  -0.2652160   0.1733596
   2.2487950   0.3227824  -0.2937716   0.5719061   1.4957069   0.6985741
  -0.0164127   0.1242283  -0.1035834  -1.4662703   0.9970195   0.3499152
  -1.6065987   0.6148716  -0.1016739   0.4735171   0.0602782  -0.1323708
   0.5444020   0.2327689   0.7255676   0.9942177  -0.4372708   0.7919081
   0.0400259   0.0321006  -0.0401775  -0.9924276  -0.1577369   0.4026000
  -0.2274065   0.2915006   0.7207186   0.3442138   0.1812238  -0.0746236
  -0.5869123  -0.2662398  -0.3535723   0.2440717  -1.1636155   1.2458073
  -0.1399865  -0.1823008  -0.0790734  -0.2204155  -0.0858693  -0.2009186
   0.1323351   0.8813474   0.3893555   0.0615196  -0.0443908   0.0758498
   0.7612321  -0.0427027  -0.8584737   0.3842950  -1.0257865   0.7844857
   0.0441723   0.1436230  -0.3442748   0.1866779   0.5342594  -0.5393741
  -2.3438013   0.1538533  -1.3284378   0.0512678   0.0175428   0.0204488
  -0.4628114  -0.9302728   0.6468872  -0.7138672   1.9568449   0.1112365
   0.1560237  -0.3925093  -0.1472402   0.0009271   1.7319217  -0.9424079
   0.0248114   0.8887814   0.3313715   0.2909022   0.2291301   0.1365025
  -0.1473703  -0.9655499  -0.2345241   0.2707812   0.5164115  -0.1463927
  -0.0684680  -0.0604077  -0.3652187  -0.9713869   0.7184731   0.2795773
  -1.0665829  -0.4485771   0.6578892   0.1701462   0.2559676  -0.1033325
  -0.8236681   0.7709339   0.1322648  -0.3888650  -0.1911121   0.0389935
  -0.0183302  -0.0756771  -0.0741250  -0.7047540  -0.3089277   0.8873984
  -1.8086352   0.8234159   1.5943903  -0.4754336  -0.1809691  -0.2007424
   0.2886778  -0.0879334   2.1795425   0.2660780  -0.8763574   0.0669851
  -0.0576315  -0.1764633  -0.1261919  -0.1977191  -1.5227314  -0.7413816
  -0.3738252  -0.2144144   0.5654157  -0.0132756  -0.2267538  -0.2723123
   1.6333469  -0.0747970   0.2026106  -1.2327250  -1.3351259  -0.4353843
   0.0919376  -0.1239282  -0.1300740  -0.8018212  -0.3512077   0.8935875
  -0.5276036   1.6886239  -0.7137185  -0.2022801   0.0484986   0.1899592
  -1.6848829   0.3784738  -0.5828391   0.7896754  -1.0979754  -0.5148195
  -0.0408559  -0.0787088  -0.2455181   1.1973931  -0.1733820   1.3688397
  -0.1238274  -1.3246945   1.2750551   0.1469547   0.3648651  -0.1515133
  -0.5983890  -1.2142093  -0.3882552  -0.4243992   0.2903023   1.5776714
   0.0300388  -0.2500728   0.1327766  -0.3572065  -0.5660610   0.5414783
  -2.0438478   1.0531542  -1.1989530  -0.2186780  -0.3350961  -0.0400674
  -1.5445662  -1.4562285   0.0246809  -0.3041279  -0.0553147  -0.0830020
   0.0948816   0.2249864  -0.1095909   0.2686118  -0.1786146  -0.2208691
  -1.3771404  -0.9054580   0.8093324  -0.0042028   0.1324604  -0.0572767
   0.4424873   0.0602244   0.6916445  -0.3882878   0.6646942   0.3639296
   0.1073029  -0.0279653   0.2089582   1.7254027  -0.1851314   1.1061047
   0.7037480  -0.6505904   0.3131628  -0.1899987  -0.1226162  -0.2462919
  -0.8536023   0.4852281  -0.2880520  -0.0715382   1.4774704   1.2444935
  -0.2052638   0.0223508   0.4866678   1.1904950  -0.1692293   0.2761851
   0.0604357  -1.1764082  -0.4500496  -0.1587727   0.1187656  -0.0354055
   1.0345681   0.1260793  -0.3828139  -0.9546575   0.2621440   0.9061888
   0.0464463  -0.0548675  -0.0407225  -1.0883867  -2.2340553  -0.4451417
   0.5591289   0.1566089  -0.2107411   0.1705806   0.1744611  -0.0859751
  -0.4328370  -0.5240277  -0.4016739  -0.1991708  -1.5863038  -0.7306911
   0.0313431   0.5618827  -0.2213600  -0.5976711   0.0044325  -0.1319707
  -0.3864066  -0.4924922  -0.0449666   0.2900230   0.0519876   0.2600152
   0.5034182   0.5122273  -0.6893656  -0.0738033  -1.0793809   0.0816052
  -0.1372190  -0.0464484  -0.1976649   0.7043627   0.5424810   0.0760530
  -0.0518987   0.9061942  -0.9218162   0.1889034   0.0270605   0.1170798
   0.6208640  -0.7541131   0.2281775  -0.8900901  -0.7603234   0.8050880
   0.2338522  -0.1712838  -0.0726177  -0.3482771   1.5849237  -0.9883362
  -0.8530363  -0.2634566  -1.2609384   0.1161047  -0.0098884   0.0929684
   1.0167542  -0.8364279   1.7415434   0.1523143   0.2918661  -0.3631366
  -0.1966348  -0.1744518  -0.1755159   1.0902513   1.1038932   0.3898832
  -0.9662091   0.2009544  -1.0833868  -0.0702500   0.2733531   0.1890456
  -0.4078166   0.8227936   0.4937929   1.1983078  -0.5994501  -0.5418270
   0.1951369  -0.1247122  -0.3756369  -1.0861634  -1.6856359   0.0459862
   1.6283225   1.4482688   0.2943077   0.1515787  -0.2036333   0.3540435
   0.4188251  -0.0038549  -0.7237961  -1.0110842  -0.1282723  -0.0698813
   0.3139946  -0.1105760   0.2161407  -1.3377757   0.3649733  -0.8316123
  -0.5328180   1.3586853   0.5219564  -0.0619153   0.0809900  -0.0355488
   0.7614191   1.7782384   0.9696200   0.5926001  -0.9811352  -1.3140371
  -0.1442862  -0.1094315   0.0460944  -0.9322679   1.6307333  -0.1571989
   2.4535339  -0.3623621  -0.0114557   0.2427666  -0.0268703   0.3022302
  -0.3075648  -1.1983596  -0.5399860   0.6497884   0.6239106  -0.9691971
   0.1977369  -0.1743580   0.0688459  -0.7235209  -0.5590960  -0.2059551
  -0.8817969  -0.7921094   1.2341315   0.0539996   0.0297912  -0.0690437
  -0.9680753   0.9850675   0.6020353   0.0791035  -0.5708826   0.4950912
  -0.2331631   0.2069154   0.2769842  -0.9543593  -0.0564820   1.3094130
   0.1542557  -0.8742362   1.1057899  -0.4426006  -0.1224125  -0.2336755
  -1.0577221  -0.3170820   0.0292041  -0.7748123   0.2605734  -0.5628023
  -0.2996677  -0.0177196  -0.0653465   1.0696208   0.5426578   1.8949778
   1.2081395  -1.0290774   0.5515132  -0.1905110   0.0006277  -0.2291746
   0.1564079   0.2923464   1.9201379   0.6761925  -0.4880057  -0.2754104
  -0.1331020   0.3127713  -0.0673134  -1.2536434  -0.3813718   0.5282211
   0.9250591   0.2325568  -0.3653404  -0.1853876  -0.2195136   0.0008836
  -0.1604441  -0.5132369   0.7367214   0.3538536   0.7517601  -0.3108754
   0.0343728   0.0022645   0.1880066   0.2015670   0.6545789  -0.7211286
  -0.7142555  -0.2715677   0.2689911   0.2430757   0.1175901   0.4060235
  -0.3928738   1.1569793   0.8971164   1.0842917  -0.0112985   0.2726200
   0.3340869  -0.0109932   0.0177322  -0.3545080  -0.0550230   1.0517823
  -0.6184228   1.2793524  -0.0692569   0.3318086  -0.2670641  -0.2203280
  -0.3003878   0.5619481   1.0954878  -1.5184218  -1.6584090   0.0285343
  -0.0058741   0.4130686  -0.1469781   1.1095449  -1.3040384   0.6005013
   0.3515069   1.0077999  -0.1171353  -0.2493257   0.2253051   0.2428375
  -0.7364159  -0.0873348  -1.1564761  -0.2378138   0.4188193   0.1854834
   0.0401809  -0.1226603  -0.0132635   0.1378404   0.7700089   0.1082176
  -0.8885596  -1.6194208  -0.4148913  -0.0064509   0.1297760   0.0372145
  -0.9417100   0.6143435   2.1397791   0.4105546   0.4486818   0.8115185
   0.1332903  -0.1099223  -0.0325099   0.5396967   0.4107428  -0.7624294
   1.0898830  -0.3457858  -0.3768596  -0.2807174   0.2365148  -0.1173929
  -0.5180061  -1.1782295  -0.6578727   0.5932351   0.0840157   0.8189029
   0.2548834   0.0336179  -0.1172750   1.2975767   0.3416796   0.4156592
  -1.4339542   0.9826765   1.7482951  -0.0027603  -0.0788959   0.1306640
   0.9902592  -0.4653829  -0.2273984  -0.9402044   1.4337094   0.7302259
  -0.0061128  -0.0505261  -0.0503566  -0.1532795  -0.0204306   0.6827773
  -0.2455568  -0.3970172  -1.2407056   0.1549857  -0.1490481  -0.0867189
   1.1798710  -0.4321086  -0.9029673  -0.8159420  -0.5961737   1.4383972
  -0.1414826   0.3756382  -0.0062079   0.0336035   0.0346952   0.6414703
  -1.1460224   1.0091721   1.0922290   0.0145811   0.2380129  -0.0584497
  -0.8604763  -0.0146387   0.8450146  -0.6105307   0.3832486  -0.4802868
   0.1099598  -0.0797763  -0.2141294  -0.0053733   0.3890625  -0.5512384
   0.5067683   0.8744861   1.0989541  -0.0615484   0.1007798  -0.0996634
  -0.5039400   1.1002467  -0.2313202  -0.1227778  -0.1946455   1.7775949
  -0.2680766  -0.1052616   0.4526599   0.1080894  -0.4519588   0.6393450
  -0.4645512   1.3447235   0.3636446   0.0528072   0.5414379  -0.2349029
   1.7950473   0.6572949   0.9282282  -0.1227538  -1.0712296  -0.2826872
   0.1013964   0.1679824   0.4232125  -0.4298371   1.7665590   0.1157525
   0.1394946   0.0172132   0.0896980   0.2669865   0.2386495  -0.0633509
  -0.3778379  -0.5232430   1.6500340   1.1851846   0.1051023  -0.2162091
   0.2336369   0.0269894   0.0891940  -0.3088630   0.5845417   0.5844086
  -0.2712291   0.2632140   2.7216535   0.2342352  -0.3293028   0.2463418
   0.2162130   0.8415600  -0.3060492  -0.5467874   0.2496884   1.4678340
   0.0120840  -0.1965217  -0.3634626   0.3081592   0.0181175  -1.0655732
  -0.4825897  -0.5069821  -0.2272275  -0.1601399  -0.0177206  -0.3854852
   0.1592025   1.4068724   0.3206871   0.6451170   0.4598233   0.0533276
   0.2308417  -0.0575064   0.0701666  -1.1454532  -0.6160598  -0.7617706
   0.7904912   0.7363212   0.3866640   0.2411091  -0.0845914  -0.0969137
   0.2544063   0.8218558  -0.2016551  -0.3423550  -0.1286857   0.2075215
  -0.0550015  -0.2833785  -0.0033309  -0.0557316   0.2199989  -1.6055806
  -0.0182008  -0.2266130   0.2018254   0.1515746   0.0971682   0.1789739
   0.1036231  -0.8516092  -0.2446179   0.8483095   0.4253459  -0.1767521
   0.0968160  -0.0974713   0.1450260   1.0161129   1.4417800  -0.6102554
   1.3433111   1.4758953   0.7678077   0.0593684   0.1965247  -0.2143377
  -0.3162625   1.0463125  -0.1683262   0.0233431  -0.3310756   0.8661344
   0.0046067  -0.1429327  -0.2910806   0.3640723  -0.3650440   1.0415238
   0.8957017  -0.3422467  -0.1342389   0.0188929   0.1651502   0.0782865
   0.2130340   0.0739250   0.9251555   0.3274566   0.9285689  -0.6073120
   0.2887118  -0.2093561  -0.0019306  -0.3380348  -0.1652388  -0.0124331
  -1.1436414  -0.9997764  -1.5214834   0.2632839  -0.0004271  -0.0908952
   0.0352313  -0.8059388   0.5810600   0.0878113  -1.0571210   0.6915184
  -0.3134066  -0.0779921  -0.1212948   0.2969032   0.3867655   0.2288723
   0.9463317   1.4883634   0.6467311   0.2260964  -0.1639847   0.1756078
  -1.2829322  -1.0467638  -1.8281006   0.1274218  -0.8649904   0.7250469
  -0.0254034  -0.3185353   0.0491613  -2.3441947   1.1978261   0.0633533
  -1.3326035  -0.1354388   0.9861788   0.3271900   0.2954467   0.2616245
  -0.3272793  -0.4252334  -0.1279680   0.5836234  -0.9961032   0.8570187
  -0.0971308  -0.0924596  -0.1247450   0.3517620   0.4011414  -0.7204568
   0.0862778  -0.3932788  -0.2471539  -0.4211097  -0.2711268  -0.1794274
  -0.1031389   0.5470535  -1.1367971  -1.0198600  -0.9553978   1.0360869
   0.1970675  -0.1610755  -0.2097993  -0.6531814  -1.1898881   0.0273679
   0.5727935   0.0000535  -0.9292182   0.0044077   0.1834991  -0.2037083
   0.9809060  -0.7983655   0.3685993  -0.4824337   1.4203548  -0.4973621
  -0.2005652   0.1942394   0.0865067   0.2912407   1.3117952   0.8047968
   0.8407613  -0.3931431   0.0729782   0.1501199   0.2459151  -0.0435036
   0.2074738  -0.4300508  -0.1819056  -0.0209067   0.2389486  -1.1186185
   0.2556767   0.3376175   0.0266027   1.0301590   0.5004170   0.3341038
   0.6103834   1.3606479  -0.4191737  -0.0199585   0.3303194  -0.4615660
   1.3235445  -1.2537616  -0.5190799   0.8851601  -1.0279211   1.8157563
   0.3625386  -0.4637027   0.1050718  -0.1541292  -0.1123539  -1.0317419
   0.7738260   1.6418760   0.3053160   0.3984318   0.0452443  -0.1827699
  -0.6190131  -0.1249023  -0.0219050  -0.6833883  -0.7246986  -1.0137526
  -0.1558215   0.1499370  -0.0529416  -0.1591073  -0.7838846   1.1698716
   0.4066287   0.1677646  -0.9636059  -0.0060618  -0.0446372  -0.0012995
  -0.0485462  -0.7699655  -0.0369009   0.5171816   0.4186062  -0.0641923
   0.0115238  -0.4347258   0.1833579   0.6864769  -0.4893203  -0.6883232
  -0.3421470  -0.7196507   0.5948260   0.0074578   0.1564665   0.2677041
   0.4936306   0.7127732   0.8349914   0.0546782  -2.0367262  -0.2016016
  -0.1523311   0.3760220  -0.0408553   1.2216009   0.4844373   1.1910967
   0.3879551  -0.6077690   0.2347259  -0.1019688  -0.0580379  -0.1795413
   0.4393016   0.5134044   0.7927454   0.5497932   0.8196318   0.0813890
  -0.1176039   0.1848852   0.0738783  -0.6747593   0.5214195   0.8659735
  -0.3685110   0.7810509  -0.6578277  -0.1095918  -0.0007549   0.1176522
   0.4368244   0.1101481  -1.2200992   0.1076348  -0.1717215   0.5446526
   0.0224485   0.0200801  -0.1808497  -0.2699015   0.8313306   0.1446251
  -1.0228517   0.0422314   1.0690926   0.2868793   0.0065981   0.1449855
   0.0803144   0.0970985   0.3252677   0.9007276   0.9308774   1.0476503
  -0.3068012  -0.1523847   0.0001670  -0.0041070  -0.5918957   1.1149172
  -0.1831124   0.5179046  -0.2816176  -0.1929214   0.0529604   0.0858078
  -0.6906707   0.5539600   1.5606823  -0.2099628   0.3943425   0.8675843
   0.0628218   0.3134564   0.4005471  -1.5466551  -0.5228088   1.0044577
  -0.2795905  -0.2705565   0.5334609  -0.3600245  -0.1780123  -0.1568472
  -0.3713976   0.3582414   1.4953711  -0.5936618   0.6746448  -0.4774832
   0.1485101   0.3460538  -0.1905274  -0.1739618  -0.5770518   0.3900366
  -1.0242035   0.1944373  -1.1085408  -0.1365909   0.0454639  -0.0296355
   1.0497968  -0.0650016   0.0228905  -0.1047122  -0.3469744   0.6481767
  -0.2006424   0.1792122   0.3687824   0.5108641   0.6508334   0.3398400
   0.2142443   0.3225709   0.0568567  -0.0299182  -0.4349889   0.1918616
  -0.4827380  -1.4993310  -0.2985514   1.7731215  -1.4463881  -1.6371951
  -0.0389632   0.2114433  -0.0195388  -1.2641433   0.0000353  -0.5891781
  -2.0158379   0.6982618   0.0047856  -0.2392797   0.1054081   0.0053612
   0.1639541   1.6177915  -0.3055014  -0.2712841  -0.0068059  -0.5959451
  -0.1724909   0.0711208   0.1448190   1.2784172   0.5373954   0.1407897
  -0.2105225   0.7221039   0.9834877  -0.0301898   0.0540119   0.3143839
   0.8400388   1.3252219  -0.8657988  -0.7911613  -0.1764650  -0.0555724
   0.1196395  -0.2264612   0.0061771  -0.4982331   0.3538830  -1.0099425
  -0.9876531   0.5710568  -1.1690706   0.1415458   0.1184318  -0.3791274
   0.5857756  -0.8865550   0.7147490   0.1084370  -0.2331675   0.2557235
  -0.1518295  -0.3067413  -0.0987000  -0.0605720   1.2615882  -0.3612079
   0.8516074  -0.7519495   0.0664920  -0.2580265   0.3664541  -0.1053657
   0.1079787  -0.2729046   0.3808744   0.2107034  -0.0103070   0.2582077
   0.0931671  -0.0305061   0.0274586   0.8282256   0.0775368   0.6754471
   0.3781757   0.7494776  -0.5744968  -0.2786407  -0.1785966   0.2341862
   0.5851502  -0.6538521   0.8454881  -1.1879877  -0.3412653   0.7116888
  -0.2210850   0.2365136  -0.1608583   0.5347742  -0.4016974  -0.6869797
   1.5951719   0.7656903   0.2810177   0.0586517  -0.0230177   0.0828683
  -0.7220077  -0.5626875  -0.3928042   0.3024687   0.0341826  -0.8700161
   0.2020189  -0.2235910   0.2450317   0.1711150   1.1875995   0.4179218
   0.2624781  -0.4702540  -0.8861188  -0.1435841   0.0893593  -0.2250348
  -2.4853888   0.1320675  -0.1369972  -0.9245141  -1.3798107  -0.5971643
   0.1845726  -0.1226312   0.1395229   0.6448417  -2.9563792   0.1188064
  -1.5971453  -0.0754070  -0.3654346   0.0000576  -0.1092389   0.3322976
  -0.4920525  -0.6621352   0.5916969   1.9663882   1.1699994  -0.2024001
  -0.2484167   0.1599018  -0.0138199  -1.8441021  -0.2129176  -0.2471681
   0.5281798  -0.8688287  -0.0498022  -0.1618232   0.2319664   0.1541689
   1.3516963   0.9747188   1.8695221  -0.6258324  -1.1908762   0.5486407
   0.1348717   0.1281635   0.3393651   0.1864632  -0.8753436  -0.9052592
  -1.1066773   0.3627371   1.0419683   0.0837249  -0.1263161   0.3073845
  -0.3067333  -0.0215165  -1.4472351  -0.9133487   0.1014418  -1.0429265
   0.2576804  -0.2526391   0.0475126   1.6830922  -0.3258751  -1.1245433
  -1.2575924   0.1767094  -0.3623939  -0.3079405  -0.0624176   0.0679654
  -0.5763972  -0.5924600   1.2173243  -0.4000680   0.3332980   0.1194941
  -0.0865301  -0.0884304  -0.3763359  -0.6483793  -0.4731842  -2.4360256
   0.6868774   0.0448351  -0.7823859   0.0340016   0.0992112   0.0939883
  -0.8717937  -2.3474023   0.3964687   1.3019133   0.7183580   0.5807369
  -0.1963727  -0.1080475  -0.1699687   1.0041907  -1.3849944   1.3907539
   0.1740752   0.8273539  -1.1957892  -0.0560533  -0.0115258  -0.2117903
   1.3689625   1.4081825   0.7649236  -1.0719544  -0.4154149  -1.2790210
  -0.0520283   0.2186002  -0.0619612   0.4966240   0.6038235  -0.3541347
  -0.0377316   1.0366117   0.2971086   0.0481182  -0.0121885   0.0922022
   0.8092543  -0.2215928  -0.3728673  -0.2946782  -0.9659968  -0.5849478
   0.2078585  -0.0209426  -0.2106459  -1.0186328   0.0365894   0.2673777
  -0.4880095  -0.1133560  -1.1182913  -0.2208261  -0.0853627  -0.1208728
   0.6409785   0.1110901  -1.0082527   0.6295950   0.6902915  -0.0878604
   0.2859859  -0.1196290   0.0219556   0.7367989   0.6515400   0.1793142
  -0.0439443  -1.3292307  -0.2978207  -0.0830954  -0.1583790  -0.0669257
   0.3025189  -0.4545930  -0.4198225  -1.7314186   0.0712993  -0.6307887
  -0.0988228   0.2259674   0.1929191   0.6873024   0.0382717   0.6518250
  -0.5095340   0.8245689  -0.7508047   0.0988947   0.0067388   0.1041076
  -0.3170276   0.2856602   0.5010413   1.2201270   0.5488409   0.0173475
   0.3146838   0.1211301  -0.0541718   0.0493653   1.2876915   0.1614255
   0.9164976   0.6774980   0.5354005   0.0720408   0.1154461  -0.1424771
  -1.4204249   0.3761179  -0.0984432  -0.1368153   0.2318492  -1.1751944
   0.3396541   0.2472730   0.0040685  -0.0869908  -0.4157018   0.1900741
   0.1916993   1.2229253  -0.7854963  -0.0665774  -0.2302268   0.0142911
   1.3618575   0.8021354   0.3471913  -1.1044506   0.1807045   1.1777149
   0.0446953   0.0405132   0.0184534   0.7624462  -1.3339869   1.2869524
  -0.7762904   0.7211094  -0.0102942  -0.3927057  -0.1890921  -0.0504179
  -0.0618847  -0.3200200  -0.1842832  -0.5054874  -0.4697938  -0.9543028
   0.0452244   0.0691503   0.0611070   0.7735635   0.8186131  -0.2432675
   0.2574367   0.3863191  -0.4524572  -0.4916722   0.2948674  -0.0162533
  -0.3510780  -0.4181852  -0.0199017   0.0327381   0.1015625  -1.2978027
   0.2787735   0.2450892   0.1393645  -1.3400791  -0.8252142  -0.4522080
  -0.7950084  -0.4496434   1.0466151   0.1436745  -0.2247806   0.1768215
   0.2380907   0.4205442  -0.4614899   0.3334402  -0.3377938   0.8090673
  -0.1052553  -0.1328272  -0.0828435   0.3682584   0.4812416   0.5597320
   0.8802236   2.1675866  -1.4011593   0.3706091   0.1282959   0.3787024
   0.1882732  -1.5273390   0.4881990   0.5901654   0.6873970  -2.2705231
  -0.0267338   0.2087476   0.0391748  -1.0666708  -0.6934294  -0.0027535
   0.9909123   0.2560950  -0.6994588   0.1608202   0.4048517  -0.0787696
  -0.1333812   0.8611625  -0.9990192   0.1111409   0.0470215   0.9729571
  -0.0575954   0.4135637  -0.1469462   0.7741370   0.0275741   0.3824374
   1.4186845  -0.6747587   0.4263051   0.4165326   0.0575975   0.0212498
   1.3588043   0.7847425  -0.1565623  -0.8426588   0.2535143   1.9461650
   0.2521902  -0.1639028   0.0713313   0.1156310   0.1450805  -0.0159172
  -0.6989312   0.8729233  -0.4027216   0.1798277   0.1681031  -0.0564251
  -0.0178491  -0.1098213  -0.5986218  -0.1018634   0.6750169  -1.2754217
  -0.0373120   0.0431287   0.3120500  -1.9159789  -0.3797471   0.9305360
   1.2452630   1.1652880  -0.0015552  -0.4202836   0.0008037   0.1019528
  -1.8377166  -1.1617368  -1.2198774   1.7346359   0.0558062   0.2532555
  -0.0920566   0.0671284  -0.0508453  -1.0863227  -0.1064851  -0.0796236
   0.3299024  -0.5645947  -0.2400247   0.1773156  -0.0437064  -0.0634402
  -0.8390731   0.0832918   0.4540072  -1.2431698  -0.1211341  -0.0040887
   0.0503926  -0.2718364   0.2320822  -0.3803324   0.7608850   0.3828899
   0.0060966  -0.9700883   0.5279061  -0.3280191  -0.3079315   0.1568014
  -0.5075836   0.1870662  -0.5232619   0.5570551  -0.9778684  -0.8744127
  -0.0367539  -0.1679343   0.2317287  -0.0287356  -1.3240108  -1.1597238
   0.8952136   0.5264867  -0.3769325  -0.2510242  -0.0339763   0.1043293
  -0.0062273  -0.0299651   0.0788147   1.1890365   1.0188878   0.2171348
   0.1945220  -0.0643713  -0.3793598   0.0434856  -1.3988519   0.2190348
  -0.4282316   0.1217128  -0.5311795   0.0411874  -0.3335058  -0.1896090
  -0.5491247  -0.3141536  -0.2030640  -1.4176172   0.1355537   0.4025314
   0.2371469  -0.0814650  -0.2004433  -0.5657468   0.8184578   0.1207434
   0.4066341   0.1373813   0.1816648  -0.0264676  -0.2491574   0.1588994
   0.2424030  -0.3176222  -0.2298242  -0.2611252  -0.8227419   1.2019954
   0.1425581   0.2860709   0.1785061  -0.7056273  -0.3786436   0.3235078
  -0.3871729   0.7580189   0.1430051  -0.0063379  -0.1017395   0.1213484
  -0.8848960   0.0030845   0.5028850   0.1271467  -1.0372130  -1.0222975
   0.1412901   0.0938346  -0.0274535   0.7223994   0.4063787  -0.4682916
  -0.4387109   0.0325826  -0.1253462   0.2427668   0.1360800  -0.0548428
   1.1371582  -0.1511362  -0.9492269   0.2874947   0.8291796  -0.1541572
   0.1186049  -0.0703399   0.3356313  -1.0218244   0.8955339   0.2822216
  -0.1112875   0.4087825  -0.8627278   0.1047543   0.0585740  -0.3086143
  -0.5882100  -0.2772405  -1.6717682   1.2265743  -1.2057490   0.6414647
   0.2651416   0.0989736  -0.0245654   0.3323134  -0.2440527   1.5933785
   0.6041822  -1.9539963   0.0792233  -0.3080972  -0.1330588   0.1737712
  -0.9204897  -0.3221500  -0.2489467  -0.2096187  -1.3552862   0.4394781
  -0.1669415  -0.1094315  -0.1630756  -0.6527638   0.3056801  -0.6417741
  -0.1386435  -0.4091098   0.0033056   0.0000317  -0.0003002  -0.2773101
  -0.2975890   0.3707097  -0.6933516   0.1179564  -1.3069615   0.1975408
  -0.1935516  -0.0579043   0.1394469   0.0990384  -0.8263662  -0.0079973
   0.3088497   0.9238097   1.2906945   0.1494824   0.1469301  -0.0384769
  -1.9275050   1.4755114   0.1756736  -0.2294339   0.2830122   0.8731110
  -0.0423006   0.0470025  -0.2430120   1.0688553  -0.0400920  -1.1891112
   0.0381461   0.0159715   0.1218408  -0.1128944   0.1122770  -0.0605190
   0.6471335   1.6804938  -0.6114851   0.0094557  -1.0995640   0.8711177
  -0.3594709   0.1870809   0.1535594  -1.4108945  -0.2008097  -0.0669703
  -3.0823753  -0.7840600   0.5146666  -0.0345753   0.1493107   0.0509911
  -0.3568171  -0.4376380  -0.8038206   0.8883970  -0.0404568  -1.1903371
   0.0120068   0.2472462  -0.1211183   1.2451810  -0.8676994   0.0540067
   0.0529027  -0.1554448  -0.2193363  -0.1588205  -0.1670752  -0.2955035
   0.4016289   0.8909134   1.4786949   0.3884299  -0.6945416  -0.5775621
   0.3353767  -0.3437982   0.3006616   0.7324588   0.3427561  -1.0628906
  -0.0137799  -0.6877668   1.5426155  -0.1340411  -0.1973199  -0.2250099
   0.1128419  -0.3516864   0.8437467  -0.7194163  -0.9039731  -0.2546379
   0.1862453  -0.1659282  -0.0138300   0.2259967   0.1825705   0.6379835
  -0.5098311   0.1813753   1.4471718   0.0370052   0.1731733  -0.1217246
   0.2990762  -1.0510728   1.5638552   0.9777629   1.4370023  -0.7143782
  -0.1091896   0.1537168   0.2010655   0.5487056  -1.5872775  -0.2896514
  -1.0147779  -0.4274336   0.7456389  -0.2050159  -0.1772773   0.1262860
   1.1417791   0.5850562   0.1443518  -0.9483869  -0.9119174  -1.3616433
   0.1068902   0.0883117  -0.1757453  -0.1938534  -1.3056397  -1.3747004
  -0.3462108  -0.0832204   0.3449986  -0.1252906   0.1434497   0.1597911
   0.1291543  -0.0705047   0.9303242  -0.5067742   0.7585784   1.4920570
  -0.0826916  -0.1973522  -0.1175789  -0.3296587  -0.5525351   0.9616613
  -0.7659621   0.3471180   0.0131992   0.1385143   0.1406984   0.0339990
   0.4006455   0.4431857   0.1719702  -0.1540092  -0.4274860  -0.1114454
  -0.1829549  -0.1214103  -0.0365329  -1.7244583  -1.0088704   0.0513339
   1.1054989   0.7152764   0.7166827  -0.0044720   0.1021697  -0.0662513
  -0.2101396  -0.0746062   1.1563836  -0.7339044   0.2779706   0.6952172
  -0.4264667   0.3051750   0.1563170   0.1469412   0.0440124  -0.3719016
   0.4756084  -0.9837083   0.4526879   0.0217722   0.1125876   0.4117337
   0.1934837   0.4740480   0.6453731   0.4434421  -0.9927171   0.0493859
   0.1610155  -0.1820315  -0.0500112   0.1664251   0.4254782  -0.9502068
   1.6987107  -0.2770686   0.3663248   0.2409314   0.0344929  -0.0394735
   0.6180131  -1.7860789  -0.5014928   0.4692375  -0.2462806   0.0958751
   0.2750837   0.2605134   0.0695173  -0.5241584   0.0733832   1.0978818
   0.3903070   0.5163031   1.3535992   0.4136448   0.1340959   0.1568001
   2.6498160  -0.6770433   0.3711258   0.0972828   1.4821817  -1.9386629
   0.2618432   0.0797448  -0.0183259  -0.2120769  -1.0803499  -0.0412174
  -0.6069787  -0.4172817   0.2307606  -0.3980874  -0.1049531  -0.4368680
   0.4487977  -0.7873287  -0.4397145   0.5377609   1.3303976  -0.4285074
   0.4846875  -0.3871115  -0.1103914  -1.0245231  -0.1661379   0.4249859
  -0.6529546   0.1484720  -0.1679112  -0.0449376   0.0900749   0.4598042
   0.9363649  -0.6497671  -0.5183483   1.2786961  -0.3080095   0.9442619
   0.0179912   0.0421254   0.0202665   0.0283171  -0.4785895   0.2660198
  -0.0613920  -0.7064705   0.5975184  -0.1043011  -0.2633023  -0.2377286
  -0.1538628   1.1695477  -1.4080014   1.7073900   0.6067348   0.4442374
   0.5510551   0.2576989   0.1116862  -1.0713145  -0.0036912   0.6678612
   0.1236805   1.6983528  -0.9128652  -0.0817638   0.0062087  -0.3923088
  -0.9073325   1.7921808   0.3463770   0.0009091   1.6261201  -0.1399372
   0.3868766  -0.0742023   0.0976471   1.0942630  -0.4622729  -0.9387446
   1.3832970   0.9206704   0.7926951  -0.0492889  -0.0566192   0.0799023
   1.2265153  -0.3420847  -1.8475862  -0.2885481   0.5149491   0.4964264
   0.1437256   0.0975953   0.0160938  -0.3953365   1.4252363  -0.5539709
  -0.2436046   0.2346335  -0.0816890   0.0596540  -0.2378381  -0.0208983
   0.8883029  -0.4747714  -0.1600972  -0.1942258   0.7239159   0.0967615
   0.0162585   0.0947307   0.1293924   0.0458155  -0.8239383   0.2999248
   0.2066749   0.3001664   0.5205017  -0.0565829   0.3520724  -0.0102614
  -0.0007307   1.0726546  -1.2433156  -0.7429010  -0.4536180  -0.6405450
  -0.0240614   0.0364710  -0.1187972   0.0391668   0.8337884  -0.0085512
  -0.1213350  -0.1640867  -0.5472922  -0.0576046  -0.0357548   0.0580329
  -0.2960828  -0.4913270  -0.7061719   0.0858653  -0.4953246   0.7414207
   0.1913371   0.0120317   0.0473962  -0.2099523   1.5767239   0.2601736
  -1.2759346  -1.0187747   0.1758607  -0.0914413  -0.0323537  -0.1452349
   0.6706731  -0.5819282   1.1605350  -0.6975869   1.6125742   0.1207519
   0.2142223  -0.3496783   0.3786021  -0.7142938   0.6790068   0.9467362
  -0.8177528  -0.1232944   0.4027934   0.0039124  -0.2071667   0.1259323
  -0.1066814   0.1324442  -0.2322613   0.4990411  -0.3016519  -0.0343240
   0.0151280  -0.0800363  -0.0391743   0.9276213   0.3616503  -0.5675063
   0.4569822   0.5872478   0.3334450   0.1245829   0.1820218  -0.0025332
  -0.5788086  -0.3124466  -0.0247287   0.2826001  -0.7615951  -1.9623644
   0.1702439  -0.0274654   0.1034741   0.9838538  -0.3909521   0.3648854
  -0.6087490  -0.4419830   0.1952377   0.0737017  -0.1017200   0.0109064
   1.2787186  -1.5074203   0.0469614   0.0910555  -0.6803761  -1.0146267
   0.5024527   0.0092630   0.1395475  -0.8717963  -0.0454167  -0.2263386
  -1.9762644   1.6093215  -1.5344832   0.2021917  -0.1426571  -0.1245633
   0.0297283   0.1756716   0.1569615  -0.6794235   0.4816148   0.0081873
   0.0436548   0.0227951   0.0232738  -0.8616216  -0.6301337   0.8385019
   0.2683908  -0.6798437  -0.2628498  -0.0246904   0.3330609   0.1489200
   0.4568650  -0.1451268  -0.3875198  -0.1601804  -0.2008250  -0.1372600
  -0.1139772   0.1237091  -0.1266904   0.8931642  -1.5331699   1.0214107
   0.2212007  -0.7134494  -0.4157823   0.0074947   0.0572459   0.2198762
   1.3947619  -0.3256317   0.4606322   0.1343622   0.2172464   0.2913093
   0.0002984   0.4393712   0.1803544   0.6319873   0.1937487  -0.0735956
   1.5902145   0.1298191  -0.1517602  -0.0118602   0.1604213  -0.2616629
   0.1673931   0.3705814   0.0203250   0.0508107  -0.1010490  -0.1595367
  -0.1836552  -0.4447802  -0.0166835  -0.5174806   0.5035755  -0.1739744
   0.9208528  -0.9620267   0.3049753  -0.1728512  -0.0503638  -0.1837699
   0.1576986   2.0863616   0.2499954   0.5430036   0.5346255   0.5789155
  -0.0190881   0.0903720  -0.1482551   0.5479511  -0.6016725   1.5658739
  -1.8854872   0.5138302   0.7777683  -0.1214516  -0.1103024  -0.0181927
  -0.9590369   1.2666782  -0.5566489  -0.7319301   0.0330630   1.2127228
  -0.0022761   0.1771730   0.0781456   0.9735750   0.4658675   1.1695269
  -0.2182891  -0.5027153  -0.2166550   0.0210346   0.1740622   0.0863133
  -1.2777832   0.2856314   0.2615279   0.4854164  -0.8843602   0.5916352
  -0.3540164  -0.0062847   0.0588999  -0.6216573   0.0704544   0.4597958
  -1.1003458   1.8512676   0.5274335  -0.1118077   0.0346213   0.0063379
   2.0633183  -0.8556393  -0.1022825  -0.8237735   0.9556219   0.3060373
  -0.1238682   0.0303671   0.1487011   0.1834996  -0.2397387  -1.4929725
   0.4105594  -0.3186724   0.7070769   0.0165226   0.2870948   0.0373982
  -0.5105954  -0.8756752  -0.7740577  -0.4784567  -1.5055364   0.9256386
  -0.1163978   0.0785897  -0.2062298  -0.9818480  -0.5825154  -0.8028186
   0.5424437  -0.0362854   0.0322189  -0.0373461  -0.0284596  -0.1692983
  -0.6163956  -1.0249972  -0.8577870  -0.4708572   0.0190762  -0.3250570
  -0.1163644   0.0374161   0.0106280   0.6287878   1.0538071   1.3150938
   1.2711889  -0.1146215   2.2054617  -0.0651757   0.0337086  -0.1562172
   0.9813384  -0.5063307  -0.5419405   0.8952320  -0.6198075  -0.4231748
  -0.1195551   0.1234025  -0.1466001  -0.5022370  -0.8195333   1.5785140
   0.1966448  -0.5836107  -0.7007720   0.2652780   0.1777507   0.0152522
   1.3402719  -0.3106217  -1.3640482  -2.5398672  -0.0230956  -0.3907594
   0.0394612   0.4442981   0.0534049   0.5085132  -0.0993759  -0.8599337
  -1.7321904  -0.4782504  -0.3388075   0.1794709  -0.0458363   0.1276101
  -1.1321462   0.8832797   1.6185678   0.2344030   0.9241401  -1.3580761
  -0.0761938   0.4404751  -0.0365938   0.4203021   0.5512230  -0.2082181
  -0.6107087  -0.4128181   0.9589664  -0.0015100   0.0847513  -0.2244600
   0.9954825  -1.8835689   0.8788366  -1.2439301   0.4986056  -1.0241122
   0.0056839   0.0719285   0.0190541  -0.5016550   0.8698733  -0.1259979
   0.2361670   1.1561381  -0.0784362   0.1115113  -0.1670427  -0.2421119
  -0.1241590   0.0296525   0.8340715  -0.5873740  -0.0865254   1.0766289
   0.0842328   0.2427093   0.1273739   0.8963126   0.8232546  -0.4991458
   0.0455709  -0.0915431  -0.3021058  -0.0200421  -0.2860438   0.0002905
   1.7506510   0.5774050  -1.0694038   0.2720684   2.0250785   0.2967882
   0.0641432   0.2967927   0.2093708   0.3274444   0.2205288  -1.6481419
   0.3084837  -0.3786598  -2.0425696   0.0977284   0.0161102   0.0287459
  -0.4129926  -0.2658338   0.4584920   0.4672778   0.5902781  -0.8244537
   0.0829788   0.1756094   0.2798373   0.6800444  -0.8134173   0.8251997
   0.9086837  -0.2020974   0.4221495   0.1836719  -0.0530973  -0.0001288
   1.3853818   0.8165454  -0.6276939   0.5197027  -0.2146188  -1.4941918
   0.1587217   0.0481119  -0.3589624   0.6557458  -0.3468254  -0.3928713
   0.5552903   0.5098196   0.9350135  -0.0293652   0.1104705  -0.3153003
  -1.6203810  -0.1924927   0.2109974  -0.0667415   0.1487079   0.9160833
  -0.2262683   0.0903756  -0.3271056  -0.4890611   0.5860960  -0.0728776
   0.5371546   0.8635463  -0.5740340   0.0061127  -0.1295937  -0.3513150
   1.2047962   1.6642361   0.7852443   1.7804906  -0.3422541   0.5798516
   0.2012675   0.0850417  -0.2918909  -0.8928195   0.9300765  -0.0799275
   0.0614150   0.0411533   1.0696893   0.1045707   0.0417077  -0.1756900
   0.0345873  -0.3336831   0.1950175  -0.1563939   0.3014985   0.8278515
   0.0014218   0.2698742   0.4476909  -0.9609833  -1.3817383  -1.2408360
  -0.3567769   0.0572894  -0.7489933   0.1393012  -0.0772627   0.0917670
   0.1103805   0.4919785   0.7594566   0.4452355  -1.1602904  -0.6834734
  -0.0464177  -0.2368468  -0.0950833   0.0152883  -0.8073398   1.0209990
  -1.3541445   0.9641499   0.9439083  -0.3356291   0.0556242  -0.2767059
   0.3622715   1.8625026  -0.8443370  -0.0562591  -1.5586344  -0.6105095
   0.0174031   0.0324671   0.3041873   0.6968940  -1.2783033   0.0315851
  -0.1445665   0.3064204   0.7965373   0.3655223   0.2278126  -0.2082523
  -0.6077766  -0.0984433   1.0772482   1.2725451  -0.0905652   0.5423774
  -0.1561766  -0.0053374   0.3416194  -0.2669460  -0.2710980   0.3738366
   1.2794508   0.3282489  -0.1454403   0.1801876  -0.3869222  -0.0606425
  -0.7511420  -0.5385230   0.7421925  -0.0204802  -0.2912063   0.1931939
  -0.4455921  -0.0022552   0.3468826  -0.3584665  -0.3310980  -0.2808287
  -0.3433476   0.6512703   0.1560455  -0.0147386  -0.0615283  -0.0453746
   0.1353138  -0.2379492   1.0442827   0.1134454   0.1274216   0.2407594
  -0.0083352  -0.5028045   0.3096034   0.1646795  -0.1418621   1.4173621
   0.7827026   0.0437123   1.3865845  -0.2138013   0.5976804   0.1197617
   0.8694426   0.6869208   0.7275422   0.5723110  -0.8838641   0.7031649
  -0.0712315  -0.0281768   0.0025966   0.1431089  -0.6216974  -1.5548381
  -1.5453545   0.2958745  -0.2136783  -0.0422261  -0.0631179  -0.1850366
  -0.5114596  -0.8404505   1.0532302   0.1211755  -1.0651711  -0.4384187
   0.0250746  -0.0366142   0.1302366  -0.2948473   1.1766353  -1.0216326
   0.1475417  -0.9286884   0.0686384   0.0120955   0.1261025  -0.2695495
   0.9009600  -0.0918441   0.8611861   0.1727349   0.9756563  -0.5079005
   0.1785663   0.1866862  -0.0675697   0.1084612  -0.0088450   0.2794017
  -0.7150992   0.5027694   0.2348482  -0.3014886   0.1199932   0.4341595
  -0.0205482   1.3803866   1.0966457  -0.3854960  -0.0760679   0.9509837
  -0.0180435   0.4284420   0.1856269  -0.1201992   0.0242582   0.3310391
   0.1699348   1.1059330   0.2623481   0.1206728   0.1000538  -0.2983258
   0.5612355  -0.9874896  -0.4607154   0.5566088  -1.2749937  -1.3482285
  -0.2264688  -0.0472918  -0.1976740   0.4531049  -0.0078509   1.0781152
   0.6752097   0.8640825  -0.1818056   0.1336622  -0.0534151   0.2316159
  -0.4970766  -1.1462708   0.2702700   0.0587666  -1.1718907  -0.8446234
  -0.0615573  -0.2187909  -0.0136430  -1.3218608   0.3600106   0.1270434
   0.3282278   0.3867967  -0.7558509  -0.1086119  -0.0887495  -0.4239039
  -0.5907556  -0.3081304  -1.1302795   0.2346171  -1.1968127   0.4705537
   0.1453934   0.0751477  -0.0328961  -0.9258902  -1.2027043  -0.3336733
   0.2764315  -0.9235016   1.7235616  -0.2787272  -0.0827502   0.3918752
  -0.1869882   1.1304599   0.7073315  -0.9197250   0.9069632   0.5661474
  -0.0548799  -0.2256000   0.3705404   0.0461619   0.1675692   0.2777837
   1.1246698  -1.4539397   2.4015126  -0.0228025   0.2823504  -0.0603587
  -0.2109966   1.2704692  -1.8236843  -0.3569157  -0.0146842  -1.0444255
   0.1268968  -0.1322942  -0.0480277  -1.2678188   0.2740386   0.3290081
   1.3288090   0.1134868   0.6037188  -0.0425773   0.3310752  -0.2809693
   0.0773043  -0.8517128   0.4228565  -1.1280049  -0.9569852  -0.4074118
   0.1578091  -0.0294665   0.0453979   0.8438235  -0.1455703  -0.3946902
   1.8216645   0.2397773  -0.5384203  -0.2227341  -0.3315315  -0.1338097
   1.2854638  -1.1934692   0.5715942  -0.0899465  -2.0760083  -1.3643626
  -0.3119800   0.0048335   0.0060601  -0.7843276   0.7217032   0.7299118
  -0.7927301  -0.2251330   0.2132321   0.0357278  -0.0166611   0.0981515
   1.0446185   1.0102801   1.2782146   0.0865865   0.2968306   1.0510783
   0.0109281   0.3414925  -0.1877052   0.7500736  -0.2934923  -0.1694379
   1.0367340  -0.6329719   0.6970197   0.1561544  -0.4013607  -0.2381962
   1.3766369  -0.6909062   0.2910942   0.5571097   1.3943068   0.9970322
   0.0427132   0.0168471  -0.0445362   0.7665967  -0.1787698  -0.0580878
   0.8583668  -0.4875228  -0.1392790   0.1585031   0.1870454   0.1938287
  -1.8928983   0.0620548   0.7204636  -0.2596945  -0.8566919   1.8332930
   0.3644850  -0.2217793  -0.0476495   0.2240687   0.4232965   1.1943297
   0.5493765  -0.7181623   0.2507261   0.1006746   0.1990286   0.1664852
   0.1564401  -0.8209082  -0.8608072  -0.7081217   0.5812404   0.0816272
   0.0954917  -0.0506421  -0.0247978   0.2604434   0.1224296   0.8517241
   0.7314479   0.2403476  -1.0375669   0.3422143  -0.1696239  -0.3161783
  -0.2697257   0.2788214  -2.3618846   0.1552225  -0.4353130  -0.3324384
   0.0867870  -0.0319443   0.1692915  -0.5363711   0.1785610   0.3915834
   0.8224226   0.0194759   0.8129826  -0.1352766  -0.2589738  -0.0125248
  -1.0162290   0.9721149   0.5418205   0.4473251   0.5479214   0.1341522
   0.4527168  -0.0967013  -0.0392930   0.1449851  -0.1925971  -0.4287838
  -0.3883968  -1.0071845  -0.0130895   0.0674724  -0.2203984   0.0725676
   0.8947235   1.4396024  -0.7246673   0.3517247  -0.4772741  -0.9853351
  -0.0810722   0.1312152   0.1574558  -0.2726291  -1.3796322  -0.0181784
  -0.9155959   0.2831358   0.4263311   0.1405075   0.3225388   0.1116207
   0.2026892   0.4172004   0.3917023   0.2117518  -0.2219885   0.4970461
  -0.0231761  -0.0045761   0.0574849   1.5821953   0.7782809   0.2193267
  -0.8226094  -0.3099634   0.7153091  -0.0264996  -0.2502521   0.1033873
  -2.2126522   0.1974635   0.1733519  -0.3198641   0.2913927  -0.6967894
  -0.0279418  -0.1763341  -0.0808945   0.9053929  -0.7054024  -1.3803753
  -0.3971514  -0.2125328  -1.8027498   0.2869988  -0.2339019   0.1201892
   0.0311133  -1.2256788  -0.9869830  -0.3892449   1.1349363  -1.6770567
  -0.1436592   0.0298211   0.3801025  -0.2279300   0.2933652  -1.6680717
   1.2214576  -0.7295656   0.3745902   0.1223223  -0.1147037  -0.1042035
   0.4165791  -1.8679578  -2.1536081  -0.3553257   0.0186156  -0.4002765
  -0.2060565  -0.1915196   0.0694711  -0.0178048  -0.2767772  -0.3932575
  -0.4657706  -0.6414816  -0.1853218  -0.0006040  -0.1274205  -0.0670668
  -0.5392200   0.6543390   1.6189936  -0.2703434   0.9168309  -1.0143276
   0.0865395   0.0252629   0.1312524  -0.1201583  -1.4183418   0.3151323
   0.4315009  -0.4657604   1.0784076  -0.0769042   0.0868315   0.1191373
   0.2683755   0.6058421  -0.8629641  -0.3097014   0.7537234  -1.0678166
   0.0383015  -0.0093903   0.0068981  -0.4925589   1.4502174  -0.6299170
  -1.9648418  -0.1317854  -1.6174811   0.3094403   0.1888246   0.1806392
   0.5766655  -0.3927045   0.3886939  -0.5420014  -0.8828256  -0.4183959
  -0.0844811   0.2011062  -0.1537171  -0.5666888   1.0278099   0.5738984
   0.1015744  -0.4206646   0.4745736  -0.0426432  -0.1710778  -0.1862775
   0.3244675  -0.2050995  -1.3842924  -0.1101890  -0.6412997  -0.4680668
  -0.1485759   0.0024967   0.1115533   1.4794447   1.1268834  -0.1145850
  -0.3815787   0.3587248  -0.0294549   0.2761347  -0.3708406  -0.0911857
   0.1802079  -0.0714041  -0.2769057  -1.5165385  -0.4833657  -1.0526403
  -0.0534580  -0.2152228   0.0682124   1.5327520   0.1124317   0.9366584
  -0.5675649   1.3410388   1.3376808  -0.1020546   0.0080868  -0.0057835
  -0.6657358  -0.6637877   1.4147739  -0.4823907   0.8207697  -0.2381891
  -0.2119251  -0.2225158  -0.3477752  -0.1731134   1.1371301   0.0523254
  -0.3736703   0.8321886  -1.0260015  -0.3028192  -0.0586149   0.1486467
  -0.2533830   1.2067227  -0.6171777   1.5131111   0.4178865   0.0884792
  -0.1248438  -0.1655149  -0.0655923  -0.1994377   0.2548978   0.6114279
  -1.1119519  -0.8876505  -0.1897201  -0.1541151  -0.0068436   0.2834842
   0.3895286  -0.4362311   0.2397765   0.7478879   0.7063112   1.4571141
  -0.1567246  -0.0598525  -0.3229838   0.6927534  -0.5118798  -0.4160946
  -0.7299082   0.3088959  -0.3740126   0.1876209   0.5625272  -0.0303995
   0.5974290  -0.8197914   1.1505193  -0.4000018   1.2865497   0.1903675
   0.2150818  -0.0176817   0.2703951   0.3367656   0.4935053   0.3258142
  -0.7675618  -1.5824686   0.7134198  -0.2389998   0.0163534  -0.0393049
   0.5521536  -0.5967373   1.1786370  -0.7795172   0.3067482   1.0062697
   0.1370320   0.0113172  -0.0973596  -1.1926804   1.0727240   0.1127184
   1.1946899  -2.1784949  -1.4877733  -0.0111074   0.0591615   0.0239284
  -0.1330687   0.6407574   0.3963515   0.6542397   0.2489781   0.0572427
   0.2661244  -0.1638678   0.0393734   0.0385591   1.3361002  -0.9847463
  -1.1560315   0.2440484   0.0633494  -0.1419278   0.3164251  -0.1574108
  -0.0812203   0.1060481   0.9017599   1.0785104  -1.0787569   0.0886970
  -0.1166135   0.0717475   0.1732985  -0.3571353  -0.2781790   0.7850410
  -0.6823121  -0.0285325  -0.2143876  -0.1187473   0.0835387   0.0051093
  -0.5528360   0.1011023   0.9349446   1.1541631   0.9498121  -0.0834141
  -0.1158514  -0.2851245  -0.1460712   0.8701105   0.4206246   1.0322262
  -0.8425416  -0.8532199  -1.1226348   0.1558078  -0.0146623   0.2482989
  -0.5425181  -1.0749835   2.2450161   0.2727340   0.3821343   1.2640842
   0.0623366   0.0818204  -0.0668992   0.3544959   0.5996659  -0.4038695
  -0.5305586   0.5518183   0.6669531   0.1260195   0.0746151   0.0836271
   1.2139328   0.7891412  -0.1277817   1.2049949   0.2064231  -1.8700120
  -0.0111089   0.1778018  -0.1645131  -0.5845813  -0.2812261  -1.2059216
   0.3976267  -1.0808958   1.2178828   0.0084319   0.1767029  -0.1130926
  -0.2740209   0.5502568   0.7372442  -0.4865898   0.9237834  -0.8170123
   0.0954115  -0.0367173   0.0068880  -1.5307500  -0.6955671   0.3779371
  -1.0189279   1.6096702   2.2303603  -0.1684297  -0.1289757   0.2354978
   1.5932019   0.0348628  -0.5401356  -1.1560104  -0.7734571  -0.7031400
  -0.0693708  -0.2052106  -0.2632025  -0.2234584  -0.4521679  -0.0461322
  -0.3637134   0.8750367  -0.1729077   0.1872013   0.1218091   0.2480100
   0.4096971   1.0754107   0.0224371   0.2140782   0.6910411   0.3075961
   0.0745276  -0.0337891  -0.0013614  -0.5942097   0.0727528  -1.2627287
   0.1686372  -1.0583314  -0.2770590   0.0158305   0.1462430   0.3153380
   0.5562379  -0.8668402   0.4414670  -0.1487029   0.1341536  -0.1789762
  -0.0610578   0.2120009  -0.1911163  -0.5753855   0.0138781   0.6149240
   0.4945803  -0.9578830   0.9656159   0.3928734  -0.0926378  -0.1616951
  -0.1842293   0.2983390  -0.2288046  -2.1017973   0.0617141  -0.2752726
  -0.2508385  -0.1358014  -0.1316030  -0.2273894  -0.6475487  -0.5128372
  -0.0764068  -0.3103375  -0.5719401  -0.3507274   0.0076440   0.1913686
  -1.4811219   0.0822311   0.0012305   2.0985768  -0.1490125   1.0165132
  -0.0364043   0.3860629  -0.0716619  -0.7291742  -0.0432830  -0.1180649
   0.6682082   0.7848259  -0.1034669  -0.0888829   0.0871178   0.0721317
  -0.7233871   0.1624791   0.6677133   1.1037096   0.8155088   0.6753249
  -0.1571428  -0.0799347   0.3790571   0.6451373   0.0324718  -0.7425207
  -1.0842347  -0.4895752  -1.9924787  -0.1480025   0.1411467   0.1853015
   0.2404618   1.4103049  -0.6679938   0.0548586  -0.3653478   0.3753925
   0.0845051  -0.1653762  -0.2812864  -1.5145469   0.1747146  -0.1366087
  -0.1151908  -0.7424980  -0.0831436  -0.0520584  -0.2285617  -0.1351150
   0.4582444  -0.5318483   0.4551822   1.0384712   0.6980659  -0.3122444
   0.2139308   0.2565172   0.4092367  -1.5295584  -0.1944158  -0.9974250
  -0.8539942  -0.7151425  -0.0143238   0.0468759   0.0425689  -0.1645902
   1.0954535   0.3828067   0.1845210   1.5449666   2.0129502   0.5026370
  -0.2714183  -0.0078115   0.1927923   0.1026223   0.0620974   0.4452214
   0.4261420   0.6968840   0.6940575  -0.0358678  -0.0350207   0.1170277
  -0.2730526   0.2967288  -0.2116434   0.2522456   0.0427099   0.0097272
  -0.0057592   0.1889741   0.0051194   0.2418385  -0.9019545   0.5562325
  -0.2988878  -0.8554589   1.1933292   0.4495339  -0.1575267   0.0654002
   1.5550144  -0.3955482  -0.4827367  -0.5783659   0.4143878   0.3233846
   0.0415955  -0.1607459   0.1782847   1.1343575   0.5938294   0.5463056
   1.7058201  -0.1795625  -0.5332617   0.0573126   0.6674008  -0.1296917
   0.5629433  -0.2572311   1.0398862  -0.7717955   0.6333761   0.5149119
   0.0616096   0.1719892  -0.1078101   1.8075010   0.3771849   0.6192737
  -0.5021755  -0.6693243  -0.1038738  -0.2678221  -0.0456627  -0.0876919
  -0.2626332   1.0097964   0.2493858   0.0163616   1.6549643  -0.7117411
  -0.3523981   0.1170072  -0.0509158  -1.1393844  -1.1593934  -1.2860430
  -1.7588307   1.8859844   0.8600302   0.1549619  -0.1052049  -0.1345252
   0.1278311   0.5265460   1.6905075   0.6294106  -0.7078425   0.7964440
   0.2625805  -0.0856147   0.1508174   0.2176468   0.5133578  -0.1373465
   1.5054709   0.5494375   0.0661059  -0.0556514  -0.0615351   0.2521988
  -0.8431748  -0.0558870   0.6270046  -0.7760928  -0.3384047   0.6322379
   0.4553521  -0.0835335   0.1301267  -1.2755649   1.1255848   0.1314574
  -0.0482555   0.9587963  -0.7358090   0.2964064   0.3410399  -0.0159707
   0.5589919   0.3974226  -1.0701385  -0.2055333  -0.1609337   0.4152065
  -0.2668521  -0.2326340  -0.0844988   1.4782172   1.1791351   0.3308733
  -0.7904737  -0.0635534  -1.0058918  -0.1525536  -0.3376314   0.2677833
   1.5105748   0.5320567   0.7983753  -0.8627686   0.1032282  -0.3244478
   0.1787024   0.0825515  -0.0019283   0.7380089   1.0167575   0.1007936
   0.9296243  -1.2467442  -0.0575277   0.0359345  -0.1023194   0.1696894
   0.2221078   0.1583049   0.3250371   0.7534840   1.6521760   0.0042358
  -0.1099468   0.0871550   0.1631085   1.1080720  -0.2557072  -0.2300769
  -0.9224870  -0.7918489  -0.6587194   0.3906065   0.0151920   0.2178307
  -0.4093074  -1.0217514   1.3642815   1.8065854   0.0289703   1.1422513
  -0.0366433  -0.1202251   0.1918007   0.6516134   0.6979357   0.9316183
   0.1130943   0.0083835   1.1100531  -0.3471584   0.3274451   0.1798040
   1.3453298  -0.6978852  -0.2996151   0.2341032   0.0727338   1.8187482
   0.1151912  -0.1345291  -0.3060609   0.8897378   0.5198303  -1.3193632
   1.1048018  -1.0349450  -0.8721110   0.0747912  -0.1334054   0.2277874
  -0.3875948   0.9784752  -0.0935483  -0.7081791   0.1856628  -0.2410669
   0.0092034   0.2768195   0.0786676   0.5924671   1.0160465   0.0140802
  -0.5957731  -0.4610699  -0.5615277  -0.1622182   0.1031786   0.0969545
   0.0172640  -0.1197498  -0.4221694  -1.3892303   0.5069336   0.6462861
   0.2150403  -0.3834167   0.0466066  -0.1516063  -1.0662395  -1.3466239
  -0.3511355   1.2207178   0.2087594  -0.0498906  -0.2504517   0.0282783
  -2.2146769  -0.8631157  -1.2186613  -0.0497401  -0.0948169   0.1551181
  -0.1354894   0.3090849   0.3716098  -1.2966144  -0.6548633   0.5740403
   0.5723904  -1.4165199   1.0331811  -0.0208797   0.0121349  -0.0349798
   0.4126948   0.3827657  -0.2443040  -1.1438808  -1.7842058  -1.5642024
  -0.1213480  -0.0270957  -0.3306625   0.5129395   0.1598042   0.4545183
   0.7487345   0.6569372   0.1007330  -0.1159043   0.4249163  -0.1634271
  -0.3436021   1.1210253   0.5628375   0.6917776   0.8744166   1.0431218
  -0.1167057   0.0518866   0.0301175  -0.3540415  -0.3481245   1.3766334
   0.6211287   0.3805764  -0.2185787  -0.1510863  -0.1174876  -0.0595694
  -0.3320986   0.1353265  -0.5351949   1.2852345  -0.0572339  -0.1676552
  -0.2046827   0.0814509   0.3450243   1.1790588   1.0368235  -0.1615358
  -0.9744240   1.2641227  -1.4078231   0.1698382   0.2542030  -0.1136707
  -0.8746444   0.4379143  -0.6416882  -0.0033943   0.3663716  -0.8499680
  -0.0912775  -0.0763406   0.0423700  -0.3273155   0.9764058  -0.2485065
  -0.0991376  -0.4824624  -0.5403612   0.2611819   0.2625086  -0.2455087
  -0.9238319  -0.5424719   0.1033995   1.5351663  -0.6906408  -0.0501880
  -0.1743697   0.2278090   0.0074956  -0.3044726   0.7628239   1.0432913
  -0.1780990  -1.0950035  -1.2423608  -0.1046136   0.0348025   0.3918518
   0.4496363  -0.2108155   0.3536221   0.1003030  -0.7673733   0.3428462
  -0.0497686  -0.0696213  -0.3101090  -0.1659754  -0.2080234   0.3504132
  -0.1543030  -2.1238723   0.7500861  -0.0042203   0.3800396  -0.5292525
   0.0418424  -0.0187312  -0.4580086   0.5272744   0.4566883  -0.6860508
  -0.0088293  -0.0979974   0.0316253  -1.1032979  -0.5335740   0.3218802
   0.3498569  -0.4331512  -0.7620905   0.0705275   0.1516241  -0.1498710
  -0.3716133   1.7592388   0.7770498   0.3944352  -1.0022748  -0.8957565
  -0.0473810  -0.0037105  -0.1791184  -0.1043556   0.5983062  -0.1591272
   0.5502558   0.8089138   0.4543734   0.2063690   0.0142879  -0.0652492
  -1.0412319  -0.0657937   1.0056714   0.4881532  -0.6309137  -1.3443643
   0.0394887  -0.1832474   0.3971975   0.9821808   1.0191485   0.7582625
  -1.1247308   1.4881893   0.5826477  -0.1990001   0.2260498  -0.1255875
   0.0527440  -0.1497948   0.7136579  -0.0547766   1.1175672   1.0208553
   0.2659013   0.0238365  -0.2324606  -0.6031703   0.6819165  -0.0228966
   0.9343110  -1.0444796   0.3993839  -0.0488903   0.1305305   0.1707011
  -0.4132521   0.9665364   0.4192717   0.1017214   0.7737052   0.1205221
   0.1315250   0.2243028  -0.2713935   0.7151967   0.8286908   1.2381842
  -1.4023373  -0.2517967  -1.1893675  -0.1365839   0.1822208  -0.2248572
  -0.7913764   0.4207825  -0.9389278  -0.0943907   1.1709454  -0.5730367
   0.1580635   0.2711399   0.5257358  -0.3624074  -1.3719735   0.5527474
  -0.0145197   0.0502000   0.1206325   0.1852545   0.1627791  -0.0625136
   0.4896149  -0.7507918  -0.4599296   0.8106328   0.2375873   0.8753974
  -0.1160427   0.0130560  -0.3208242  -0.0356783  -0.2328712   0.6257101
  -0.4848721   1.7039882  -0.0535306  -0.0060350   0.0065522   0.1083889
   1.9796255  -0.5295171   0.2758899   0.4289566   0.4110577  -0.2351382
   0.0314596   0.0654552  -0.2226230  -0.5808049   0.6795030   0.6431779
  -0.4933894   0.3158481   1.6697108   0.0085541  -0.0980525  -0.3871404
   0.8658808  -0.7637817  -0.8181353   0.0687139   0.1015327   0.5166997
   0.2628177  -0.1858413  -0.1904182  -0.6927003  -0.1119130   0.2691809
  -0.6453003   1.7243980  -0.8306273  -0.0656603  -0.3462477  -0.2674419
  -2.1785624   1.0090945   0.4068364   0.2501174   0.9197094   1.1499368
   0.1338504   0.0773014  -0.2679907  -2.1592677  -1.4493375  -0.2579633
   0.5549396   1.1054618   1.0405072   0.2936032   0.0871879  -0.0122908
   0.5862871  -0.1103171   0.9939914  -1.0118439  -0.6761415   1.5450797
  -0.0385385  -0.1244481   0.0651323  -0.6202973  -0.6018236  -0.6045934
  -0.3795210  -0.6815808   1.2825180   0.0943378  -0.1647742   0.1911761
   0.0425513   0.4337189   0.8225559  -0.4171499  -0.3493701  -0.2935108
  -0.3340108  -0.0787913   0.3160487   0.3268905  -0.0798913   0.0612768
   0.0502621  -0.0714263  -2.1431999  -0.0396548   0.0812142   0.1879416
  -0.3302399   0.1151360   0.4304231  -0.5236201  -0.1641399   1.9301640
   0.2034068  -0.1614249  -0.0096196   0.3241807  -0.7895744  -0.1106831
   1.1437750   0.3503431  -0.7154890  -0.0762191  -0.0684319   0.0208396
   0.7059122   1.2775398  -0.2982041  -1.2417583   0.9624440  -0.9248666
   0.0131854  -0.0146239  -0.2752821  -0.5825858   0.6710907  -0.6375770
   0.4052826   0.1112302  -0.7488642  -0.4378356  -0.0367851  -0.0899756
  -1.5532633   0.9869863  -1.1903280   0.2525694  -0.7882398   0.0022496
  -0.0770622   0.0074556   0.0009746   0.8673386  -0.1928471  -0.4963920
   0.7982807  -0.1432231   0.6423478   0.2658373   0.0353082  -0.3684942
   1.0352640   0.1802562  -0.8532924   0.1543524   0.2043888   0.3997424
   0.1509097   0.0005349   0.0160733  -0.2810465   0.7394589  -1.7080089
   0.1212328  -0.4977921   0.3925991   0.5420092  -0.1827173  -0.1821862
  -0.7166306  -1.4985813  -0.0063976  -0.3690315  -0.3474961   0.3928721
   0.0039539  -0.2707968  -0.1467845  -0.8284277  -0.9532489  -0.9697740
  -0.5745190  -0.0530492   0.0776455  -0.0158139   0.3018952   0.0529099
  -0.4477954  -1.5684016  -0.0339067   0.5005472   0.9114680  -0.3690375
   0.0710270   0.1414018  -0.2561657  -0.4987965  -0.0808320   1.3044283
   0.0382942   0.6441707   0.2067915  -0.2054878  -0.0951800   0.2370178
   0.9068517   0.1207930  -0.0808884   0.0561950   0.1973626  -0.7712887
  -0.0031659  -0.1541218   0.1966881   0.5223161   0.3383191   0.4353657
  -1.0631087  -0.0887255   0.4851639  -0.0395113  -0.0545678   0.1846054
   2.1394026  -0.1484105   0.5781106  -1.0950259   1.1372889   0.3454727
   0.0157495  -0.1099467  -0.0847884   0.9868239  -0.3036648  -0.7702511
  -0.2553973  -0.4640564  -0.2920943   0.0954824   0.0719196   0.0821217
   0.4152347  -0.2905155  -0.9234625   0.7050561  -0.5186065   0.8907359
   0.0722221   0.1185514  -0.1020833   1.5866990   0.8166416  -1.0479264
  -0.5130845  -0.3576283   1.5924884   0.2343314  -0.1787726  -0.2565212
  -0.2647501   0.1085394   0.1674120   1.0664240  -0.0471686   1.4761388
   0.0716651  -0.3119255  -0.1528147  -0.5545909   1.3910038   0.0749723
   0.6366342   1.6297725  -0.6517797  -0.2149537   0.1992766  -0.1483967
  -0.8907973  -1.3801119  -2.0047290   1.0386040   1.2147510  -0.1609209
   0.1213469   0.0520367   0.3952948   1.3150148   1.0956740  -0.9027639
  -0.6263576  -0.0882759   0.2363800   0.1675279   0.1634227  -0.1046333
  -0.7393671   1.2207260  -0.2318545  -0.6623552   1.8294715   0.1543201
  -0.2169383  -0.0701443   0.2974680   0.5330356  -0.1995132  -0.3451546
  -1.1919553  -1.4389175   1.2319037   0.1342227  -0.2165928   0.0099865
  -1.3116913   0.3893360  -0.4547974  -0.8697283  -1.2401698  -0.4889012
  -0.0171229  -0.1951076  -0.2660979   0.5541058  -0.2287077   0.7526670
   0.9048384  -0.0088392   1.7101423   0.2167697   0.1954399  -0.2358200
  -0.9983346   0.5832254  -0.4761743   0.4507211   0.0540621  -0.1667496
  -0.2253682   0.2280252  -0.1460483   0.1273935   0.1300396   1.0024542
   0.0345883   0.8222358   0.2998879  -0.0942091  -0.3910474   0.1951661
   1.4675865   0.2651982   0.2558633   1.1547556   0.9595148   0.0669671
   0.1280027   0.4216208   0.3428703   0.4131836  -0.9088722  -0.1892266
  -0.7670021  -1.0350282  -0.3038996  -0.0930461  -0.1783408   0.3625160
   0.3029660   0.6421752  -0.8906526   0.1284507   0.2260604   0.1132560
   0.0901401   0.2340684   0.0704337   0.9968683  -0.7127551   0.6646172
   0.3905998   0.0827890   1.4069289  -0.1573616  -0.0763400   0.0178276
   0.4958602  -0.4396472  -0.3985325  -1.3050469  -0.0873179   0.4666797
  -0.0667924   0.2287412  -0.1191815  -0.6491004   1.1048914   0.8093151
  -0.8046094  -0.4239712   0.9003602   0.0958862  -0.1210672  -0.2166827
  -0.0797540  -0.6896135   0.2320450  -1.0898839   0.8229565  -0.6602461
   0.2473992   0.0794204   0.0268415   0.2779053  -0.9596966  -0.3754291
   0.7506117  -0.6223011   1.3831983  -0.2809193   0.0027540  -0.1302190
   0.7736429  -0.1610112   0.1619543  -0.2313973   0.3869874  -0.1493101
  -0.0232932  -0.1758766  -0.3439860   0.0597077   1.4372715   0.2846361
   0.7163895  -0.5959488  -0.8187020  -0.2231866   0.3114420   0.3766645
   0.7627767   0.9821603  -0.9357913  -0.2946415  -0.1204604   0.7977062
  -0.3338580   0.2749434  -0.3341137  -0.4842938   0.7159988   0.5183330
   1.0811164  -0.0624403   0.4304150  -0.0654411   0.4373228   0.0738057
  -0.5216506  -0.9794189  -0.1373620  -0.0683221  -0.6167924  -0.0468374
  -0.0451431  -0.0273713   0.1814948   0.7299705   0.5760450  -0.6050041
  -0.4043675   0.0980394   1.2032014   0.0483699   0.0305466   0.2481890
  -0.4784857   0.8225349  -1.2236098   0.8163365  -1.1280720   0.1319304
  -0.0772348  -0.0842253  -0.2311416  -0.1634018  -0.8286420  -1.0277956
   1.7321757   0.1852223  -1.2265307  -0.0414382   0.0579804  -0.0176448
  -1.3998096  -1.6716361  -0.7702135  -0.1282380   1.1577039  -0.2668312
   0.0202475   0.0538445   0.0717351  -1.1354798   0.1835775   0.2314866
   1.1277895   0.4055963  -0.1197191   0.2418635  -0.1211697  -0.2854272
  -0.1629846  -0.3703516  -0.0228483  -0.0974928   0.5399960  -0.3868125
  -0.0596597  -0.3853765   0.1534661   0.2047653   0.9242263   1.6720988
  -0.4398471  -0.5246948   0.1499591  -0.1371738  -0.2165730  -0.2818977
  -0.6005874  -0.1467904  -0.5525489   0.1749479  -1.6602699   0.5157167
  -0.1848030   0.0031064   0.0163130   0.1405463   0.7471529  -0.2744834
  -0.8793254  -0.6543914   0.1140856  -0.0272715  -0.2598954  -0.1906613
  -0.1031363  -0.0063101  -0.1154485  -1.0427862   1.4021991  -0.1732469
   0.0946286   0.1200110  -0.0413078  -0.0584190   1.2655213   0.1718352
   1.1562868   0.5751534   0.7483616   0.0727222  -0.4382429   0.1461645
  -0.8173372   0.7034129  -0.6844745  -0.2242465   1.6065050  -0.9594065
   0.1032018  -0.1067077   0.1442501   0.9365566  -0.8475289   0.6860918
  -1.1367407  -1.3121610  -0.6686681   0.2409289  -0.1822864   0.0144475
  -0.5883696  -0.5326797   1.1051621   0.0557436  -0.3407512  -0.1490469
   0.0216088  -0.0860602   0.1770257   0.6640033   0.5874330   0.2874656
  -0.2416750   0.4296479   0.7436465  -0.1992627  -0.0359870  -0.3597510
   1.1151860  -2.2029293   0.7014981   0.0403118   0.6176258  -0.6194345
   0.1168836  -0.0412975  -0.2417672  -1.0811450  -0.0898607  -0.5568256
   1.4500749  -0.7670814   0.0161325  -0.3429347  -0.1262743   0.1205580
  -0.3282420  -0.7332712   0.6885664  -0.9553767  -1.4840670  -0.7750911
   0.0905713   0.0527049  -0.1998314  -0.4875425   0.2668729  -1.5052804
  -0.4308775   0.5140461  -0.4986485  -0.2390811  -0.1540490  -0.0179624
   0.6507355   0.9438306  -0.0758435  -0.5807011   0.5514336  -1.4174268
   0.0629898   0.1253959   0.0437992   1.3848523  -0.0326926  -0.4819134
  -0.2993022   1.5390574   0.7382279   0.0619681  -0.2677257   0.1016417
   0.5458269  -0.1312283  -0.6446806  -0.7110443   0.1039509  -0.4239240
   0.0704410  -0.0457340  -0.1967137  -0.4782563   0.7508553  -0.8183523
  -0.1982097  -0.3916042   0.8969576   0.0597740   0.2574822  -0.2006239
  -0.9046730  -0.1724053   0.5657473   0.8334010   1.6810750   0.3137608
  -0.0409536   0.1010389  -0.4065653   0.3036196   0.0702397  -0.2278900
  -0.5730997  -0.9570905  -0.2560978  -0.2959096   0.0344318  -0.1673147
  -0.8033678   0.0795957  -0.5488546   0.6966376  -1.8137183  -0.4652233
   0.0011291   0.0337745  -0.0638270   0.1231862  -0.4057740   0.4645047
  -0.1155937   1.8180009   0.3772753  -0.0200541   0.1398916   0.0244489
   0.3555956   0.2609122   0.6757757   0.8100603  -0.4306767  -0.7062993
  -0.1135026  -0.3513804  -0.1634289  -0.2745651  -0.2582235  -0.0067334
   0.3501738   1.1671469   1.4880970  -0.0617965   0.1102628  -0.3686310
  -0.7594215  -1.2282134  -1.2640611   0.6118637   0.2382102  -0.9615032
   0.0144626   0.0248210  -0.0755679  -0.6599752  -0.4603127   0.3321058
   0.8075232   0.1646614  -0.4609635   0.2732697   0.1901452  -0.2195133
   0.0245047  -0.8364431  -1.2175051  -0.1941606   0.1031227  -0.0775129
  -0.4605095   0.3055846   0.0628071   0.0642806  -0.4034557  -1.2660450
  -2.1960130  -1.6911030   1.1774006   0.0148370   0.0466830   0.0124436
  -0.0759110   1.0168204  -0.7756012  -0.4913584  -1.0515732  -1.0089655
  -0.1246698  -0.2178322   0.1081522   1.4581704  -0.2576082   1.6228269
   0.1220495  -0.7513895   1.1777712  -0.0905190   0.1326405  -0.0160390
  -0.1350517   0.0101061  -0.3046313  -0.9397173  -0.4342873   0.6319386
  -0.3772165  -0.1090152   0.2987282  -0.4454945   0.1864117  -0.3584936
   0.9781997   0.4331892   0.3735095   0.1261548  -0.3556140  -0.1920779
   1.9954940  -1.1782197  -1.1963300  -1.2097450   0.2351839  -0.7746013
   0.0084862   0.2763728  -0.1175540   0.4473552   1.0486784  -0.3405422
   1.4270627  -0.5071141   1.1687742  -0.3653657  -0.3474493   0.0280083
   0.0686119  -1.8434403   1.2324953  -0.3840595   1.4363707   1.1923314
  -0.3709835  -0.0793741   0.1162565   0.2448884   0.1731672   0.8318440
  -0.4113124   0.0525000   0.5006706  -0.0660104   0.1791095  -0.0254333
  -0.1463919  -0.1188532   1.9239036  -0.4189533  -0.3862664   0.9174413
   0.1100343  -0.1459183  -0.0349311  -0.9027200   0.1537803   0.6913053
   0.8914317   0.0218726  -0.3905163   0.1475611  -0.2003805   0.2546991
  -0.4769097  -0.7782536  -0.5451654  -0.8413603   0.0516162   0.6666858
   0.0337219   0.1908901  -0.0628600  -0.5492119  -0.0149965   0.1294581
   0.3227237   0.1729366   0.8280751   0.2168929   0.1530847  -0.0656376
   0.6975416  -0.3831259  -1.3005812   0.6392192  -0.2496705  -0.2263163
  -0.1894953   0.2431827   0.2089690   1.0810853  -0.0218925   0.6130126
   1.1383663  -0.3219250  -0.4526562  -0.0018831   0.0982361   0.0147415
   0.1451840   0.6978638   0.4961235  -0.2348099   0.0487473  -0.0573894
   0.0402677  -0.2945792   0.0267683  -0.6420282  -1.5415753   0.6373450
  -0.4822812  -0.6568079   0.0939205   0.0152584   0.1788095   0.0311404
   1.1096153  -0.4142628  -1.3313100  -0.2269928   0.6454082   0.0325288
   0.0894468  -0.0814889   0.1918336   0.8734503  -0.9898659   0.2522265
  -0.3580784  -0.8304251  -0.1419066   0.1506401  -0.2663794  -0.0278082
  -0.3651751  -0.2624808  -0.9931456   0.9206991  -0.1469800  -0.0750747
   0.2315747  -0.3312647   0.1514759   0.8576362  -0.8529239   0.2501779
  -0.0061921  -0.4249362   0.3301948  -0.2022292  -0.0281928  -0.1292639
   0.8184513   0.5740895   0.1862371   0.4613572  -0.1208159   0.4105535
  -0.1360950  -0.1254600   0.2455486  -0.6970958   0.4628805  -0.0652769
  -0.1735294  -0.0489165   1.4149131  -0.0989686   0.2175309   0.1735275
  -0.0741874   1.7708513  -0.1611972  -0.2075897  -1.3763344   0.0734955
  -0.1020122   0.0036202   0.0375573   0.3948135   1.0651577   0.6393221
  -0.9261677  -0.0998955  -0.1416072  -0.0262273  -0.0219451   0.0086573
  -0.4068194  -1.0442880  -1.3315889  -1.0146540  -1.3605918   0.7278046
  -0.5240303   0.3232828  -0.0647977  -0.1226701  -0.2320482   0.1401727
  -1.4631875  -0.8338340  -0.8194780   0.1021392   0.0792314  -0.4140701
  -0.1089965  -0.8831292   0.1199726  -0.3980801  -0.7311541   0.4723566
  -0.2258094  -0.0380994   0.3504797   0.3341662  -0.0172197   1.7934483
  -0.2144511  -1.7333732   1.9852421  -0.1400795  -0.1616706  -0.0476949
   0.1205486   0.9931161  -1.2441175   1.2047936   0.4458899   1.2521131
   0.0974621   0.0061572   0.3298577   1.2187999   0.5458757   0.7770643
   0.1315306   0.8986673   0.0096847  -0.0452744  -0.3264486  -0.1661121
  -0.9062148   0.5013734  -0.6090202   0.4063174   0.6163452   1.6974286
   0.2333578  -0.0100630   0.0921100  -0.6829584  -1.2806191   0.5910510
   0.2302577   0.2334978  -0.2418218   0.0374688  -0.1133534   0.2771602
   0.7264721   0.1864632   0.7397141  -0.3612504   0.0801055   0.0926763
  -0.1474357  -0.2925358  -0.1433141  -0.3571724  -0.1259200   1.2330519
  -0.1624373   0.7059752   0.8541444   0.0556897   0.0713240  -0.0499776
  -0.4633678  -0.1810129   0.4361220   0.1116076  -0.3279889  -0.2376475
  -0.2508365   0.3921969  -0.2728949  -0.0715249  -1.3173019  -0.0890788
   0.8765485  -0.0172095  -0.3768803  -0.3139963   0.1270205   0.0150540
   1.2195927   0.0040931   0.8471183   0.2491401  -0.1354733   0.3491028
   0.0946904   0.2166729  -0.1332804   0.2341088   0.5511960  -0.0600878
  -0.9941348  -0.4903613   0.7544464  -0.1529024  -0.1535582  -0.1415456
  -0.0134938   0.2353456  -0.9352882  -0.8589230   0.5335879  -0.4189649
  -0.1654492   0.0929807   0.2584049  -0.0557007   0.0385466   0.2397722
   1.2878174  -1.0956953   0.0437510   0.0719527  -0.2848522   0.1605826
  -0.7014064  -1.8378251  -0.6570294   1.5461208   0.8570966   1.3340261
  -0.1595041  -0.4040816   0.3119608  -0.1732347   0.4185662  -0.5125664
  -0.1180278   0.0436612   0.1747732  -0.1820101   0.2068656   0.0132778
  -0.3565378  -0.7908039   0.6893409  -0.8556977  -0.3048706  -0.1447243
   0.2848026   0.2025010   0.2068151   0.0610609  -1.6746798  -0.3234458
  -0.6144843   1.0950627  -0.2283249  -0.1251790  -0.1974643   0.1491367
  -1.2421310   0.1703278  -0.2296392  -0.4644920  -0.0879653  -0.1146634
  -0.2348541   0.0875402   0.1648729   0.0250760   0.1254783  -0.3393169
  -0.1009803   0.8553792   1.2930089  -0.0077344   0.1011258   0.3082672
   0.5185660   0.7223902   1.0404952   0.5845380   1.1814110   0.6042247
  -0.2902436  -0.0973973  -0.0428013  -0.6103672   0.6013997   1.4141804
   0.1218080  -0.0144431  -0.4999004  -0.2003697  -0.0244996   0.0304937
   0.8354774  -0.3528137   1.2823621   0.0640489   0.8250247   0.6726174
   0.2384016   0.2995177  -0.0807563   0.8823010  -1.5259222   0.7232271
   2.6227314  -0.6123880   1.3237344   0.1790101  -0.2187253   0.2475683
  -0.8842247   0.2951424   0.4479530  -1.7964501  -0.1418757   0.3605213
   0.1423919  -0.1848162   0.0819499   0.5116358  -0.4114077   1.3609957
  -0.1634957  -0.6857259   0.7288449   0.0938575  -0.0465860   0.2006338
   1.3350118  -0.2751303  -1.6778833  -0.8253127   0.3513400   1.0210263
   0.0717051  -0.2065775  -0.0206721   1.0381556  -0.1515988   0.5804417
   1.8132269   0.2829870   0.5483660  -0.2890293  -0.1484838  -0.0075374
   0.9035022   0.3046891   0.3500690   0.4860271  -1.3429818   0.1603010
   0.0151434  -0.1726965  -0.0669264  -1.3120124   0.0091887  -0.0659354
  -0.2026689  -0.2842032   0.0102721
  88.8577082  88.8577082  88.8577082 109.4712190 109.4712190 109.4712190
